1
Lattice="20.0 0.0 0.0 0.0 20.0 0.0 0.0 0.0 20.0" Properties=species:S:1:pos:R:3:force:R:3 config_type=isolated_atom virial="0.0 0.0 0.0 0.0 0.0 0.0 0.0 0.0 0.0" energy=0.0 pbc="T T T"
Si      10.00000000      10.00000000      10.00000000       0.00000000       0.00000000       0.00000000
1
Lattice="10.0 0.0 0.0 0.0 10.0 0.0 0.0 0.0 10.0" Properties=species:S:1:pos:R:3:force:R:3 config_type=isolated_atom virial="-0.003932437858726246 0.0 -0.0 0.0 -0.003932437858726246 -0.0 -0.0 -0.0 -0.003932437858726246" energy=-0.06365082 pbc="T T T"
P        1.98275554       1.11276674       0.78597677       0.00000000       0.00000000       0.00000000
