2
Lattice="30.0 0.0 0.0 0.0 30.0 0.0 0.0 0.0 30.0" Properties=species:S:1:pos:R:3:force:R:3 config_type=P_P_dimer energy=-9.04736047 pbc="T T T"
P        0.00000000       0.00000000       0.00000000      -0.01933577      -0.00000000      -0.00000000
P        1.90000000       0.00000000       0.00000000       0.01933577       0.00000000       0.00000000
2
Lattice="30.0 0.0 0.0 0.0 30.0 0.0 0.0 0.0 30.0" Properties=species:S:1:pos:R:3:force:R:3 config_type=P_P_dimer energy=-8.99977488 pbc="T T T"
P        0.00000000       0.00000000       0.00000000       1.66785943       0.00000000      -0.00000000
P        1.95517241       0.00000000       0.00000000      -1.66785943      -0.00000000       0.00000000
2
Lattice="30.0 0.0 0.0 0.0 30.0 0.0 0.0 0.0 30.0" Properties=species:S:1:pos:R:3:force:R:3 config_type=P_P_dimer energy=-8.87037637 pbc="T T T"
P        0.00000000       0.00000000       0.00000000       2.96139369      -0.00000000       0.00000000
P        2.01034483       0.00000000       0.00000000      -2.96139369       0.00000000      -0.00000000
2
Lattice="30.0 0.0 0.0 0.0 30.0 0.0 0.0 0.0 30.0" Properties=species:S:1:pos:R:3:force:R:3 config_type=P_P_dimer energy=-8.67872383 pbc="T T T"
P        0.00000000       0.00000000       0.00000000       3.93645671       0.00000000      -0.00000000
P        2.06551724       0.00000000       0.00000000      -3.93645671      -0.00000000       0.00000000
2
Lattice="30.0 0.0 0.0 0.0 30.0 0.0 0.0 0.0 30.0" Properties=species:S:1:pos:R:3:force:R:3 config_type=P_P_dimer energy=-8.44057937 pbc="T T T"
P        0.00000000       0.00000000       0.00000000       4.65667483      -0.00000000      -0.00000000
P        2.12068966       0.00000000       0.00000000      -4.65667483       0.00000000       0.00000000
2
Lattice="30.0 0.0 0.0 0.0 30.0 0.0 0.0 0.0 30.0" Properties=species:S:1:pos:R:3:force:R:3 config_type=P_P_dimer energy=-8.16862858 pbc="T T T"
P        0.00000000       0.00000000       0.00000000       5.16957086       0.00000000       0.00000000
P        2.17586207       0.00000000       0.00000000      -5.16957086      -0.00000000      -0.00000000
2
Lattice="30.0 0.0 0.0 0.0 30.0 0.0 0.0 0.0 30.0" Properties=species:S:1:pos:R:3:force:R:3 config_type=P_P_dimer energy=-7.87305417 pbc="T T T"
P        0.00000000       0.00000000       0.00000000       5.51869837      -0.00000000      -0.00000000
P        2.23103448       0.00000000       0.00000000      -5.51869837       0.00000000       0.00000000
2
Lattice="30.0 0.0 0.0 0.0 30.0 0.0 0.0 0.0 30.0" Properties=species:S:1:pos:R:3:force:R:3 config_type=P_P_dimer energy=-7.56199648 pbc="T T T"
P        0.00000000       0.00000000       0.00000000       5.73611444       0.00000000       0.00000000
P        2.28620690       0.00000000       0.00000000      -5.73611444      -0.00000000      -0.00000000
2
Lattice="30.0 0.0 0.0 0.0 30.0 0.0 0.0 0.0 30.0" Properties=species:S:1:pos:R:3:force:R:3 config_type=P_P_dimer energy=-7.24192861 pbc="T T T"
P        0.00000000       0.00000000       0.00000000       5.84941055      -0.00000000      -0.00000000
P        2.34137931       0.00000000       0.00000000      -5.84941055       0.00000000       0.00000000
2
Lattice="30.0 0.0 0.0 0.0 30.0 0.0 0.0 0.0 30.0" Properties=species:S:1:pos:R:3:force:R:3 config_type=P_P_dimer energy=-6.91797021 pbc="T T T"
P        0.00000000       0.00000000       0.00000000       5.88066543       0.00000000       0.00000000
P        2.39655172       0.00000000       0.00000000      -5.88066543      -0.00000000      -0.00000000
2
Lattice="30.0 0.0 0.0 0.0 30.0 0.0 0.0 0.0 30.0" Properties=species:S:1:pos:R:3:force:R:3 config_type=P_P_dimer energy=-6.59414028 pbc="T T T"
P        0.00000000       0.00000000       0.00000000       5.84772120      -0.00000000       0.00000000
P        2.45172414       0.00000000       0.00000000      -5.84772120       0.00000000      -0.00000000
2
Lattice="30.0 0.0 0.0 0.0 30.0 0.0 0.0 0.0 30.0" Properties=species:S:1:pos:R:3:force:R:3 config_type=P_P_dimer energy=-6.27357177 pbc="T T T"
P        0.00000000       0.00000000       0.00000000       5.76504751      -0.00000000       0.00000000
P        2.50689655       0.00000000       0.00000000      -5.76504751       0.00000000      -0.00000000
2
Lattice="30.0 0.0 0.0 0.0 30.0 0.0 0.0 0.0 30.0" Properties=species:S:1:pos:R:3:force:R:3 config_type=P_P_dimer energy=-5.95868659 pbc="T T T"
P        0.00000000       0.00000000       0.00000000       5.64376483      -0.00000000       0.00000000
P        2.56206897       0.00000000       0.00000000      -5.64376483       0.00000000      -0.00000000
2
Lattice="30.0 0.0 0.0 0.0 30.0 0.0 0.0 0.0 30.0" Properties=species:S:1:pos:R:3:force:R:3 config_type=P_P_dimer energy=-5.65133104 pbc="T T T"
P        0.00000000       0.00000000       0.00000000       5.49353858       0.00000000       0.00000000
P        2.61724138       0.00000000       0.00000000      -5.49353858      -0.00000000      -0.00000000
2
Lattice="30.0 0.0 0.0 0.0 30.0 0.0 0.0 0.0 30.0" Properties=species:S:1:pos:R:3:force:R:3 config_type=P_P_dimer energy=-5.35287944 pbc="T T T"
P        0.00000000       0.00000000       0.00000000       5.32203279       0.00000000      -0.00000000
P        2.67241379       0.00000000       0.00000000      -5.32203279      -0.00000000       0.00000000
2
Lattice="30.0 0.0 0.0 0.0 30.0 0.0 0.0 0.0 30.0" Properties=species:S:1:pos:R:3:force:R:3 config_type=P_P_dimer energy=-5.0643382 pbc="T T T"
P        0.00000000       0.00000000       0.00000000       5.13564649       0.00000000      -0.00000000
P        2.72758621       0.00000000       0.00000000      -5.13564649      -0.00000000       0.00000000
2
Lattice="30.0 0.0 0.0 0.0 30.0 0.0 0.0 0.0 30.0" Properties=species:S:1:pos:R:3:force:R:3 config_type=P_P_dimer energy=-4.78639417 pbc="T T T"
P        0.00000000       0.00000000       0.00000000       4.93857760       0.00000000       0.00000000
P        2.78275862       0.00000000       0.00000000      -4.93857760      -0.00000000      -0.00000000
2
Lattice="30.0 0.0 0.0 0.0 30.0 0.0 0.0 0.0 30.0" Properties=species:S:1:pos:R:3:force:R:3 config_type=P_P_dimer energy=-4.51949687 pbc="T T T"
P        0.00000000       0.00000000       0.00000000       4.73555440      -0.00000000       0.00000000
P        2.83793103       0.00000000       0.00000000      -4.73555440       0.00000000      -0.00000000
2
Lattice="30.0 0.0 0.0 0.0 30.0 0.0 0.0 0.0 30.0" Properties=species:S:1:pos:R:3:force:R:3 config_type=P_P_dimer energy=-4.26389794 pbc="T T T"
P        0.00000000       0.00000000       0.00000000       4.52951701       0.00000000       0.00000000
P        2.89310345       0.00000000       0.00000000      -4.52951701      -0.00000000      -0.00000000
2
Lattice="30.0 0.0 0.0 0.0 30.0 0.0 0.0 0.0 30.0" Properties=species:S:1:pos:R:3:force:R:3 config_type=P_P_dimer energy=-4.01969276 pbc="T T T"
P        0.00000000       0.00000000       0.00000000       4.32287671       0.00000000      -0.00000000
P        2.94827586       0.00000000       0.00000000      -4.32287671      -0.00000000       0.00000000
2
Lattice="30.0 0.0 0.0 0.0 30.0 0.0 0.0 0.0 30.0" Properties=species:S:1:pos:R:3:force:R:3 config_type=P_P_dimer energy=-3.786854 pbc="T T T"
P        0.00000000       0.00000000       0.00000000       4.11770994      -0.00000000      -0.00000000
P        3.00344828       0.00000000       0.00000000      -4.11770994       0.00000000       0.00000000
2
Lattice="30.0 0.0 0.0 0.0 30.0 0.0 0.0 0.0 30.0" Properties=species:S:1:pos:R:3:force:R:3 config_type=P_P_dimer energy=-3.56525622 pbc="T T T"
P        0.00000000       0.00000000       0.00000000       3.91575479      -0.00000000      -0.00000000
P        3.05862069       0.00000000       0.00000000      -3.91575479       0.00000000       0.00000000
2
Lattice="30.0 0.0 0.0 0.0 30.0 0.0 0.0 0.0 30.0" Properties=species:S:1:pos:R:3:force:R:3 config_type=P_P_dimer energy=-3.35469759 pbc="T T T"
P        0.00000000       0.00000000       0.00000000       3.71785310       0.00000000      -0.00000000
P        3.11379310       0.00000000       0.00000000      -3.71785310      -0.00000000       0.00000000
2
Lattice="30.0 0.0 0.0 0.0 30.0 0.0 0.0 0.0 30.0" Properties=species:S:1:pos:R:3:force:R:3 config_type=P_P_dimer energy=-3.15491546 pbc="T T T"
P        0.00000000       0.00000000       0.00000000       3.52513107       0.00000000       0.00000000
P        3.16896552       0.00000000       0.00000000      -3.52513107      -0.00000000      -0.00000000
2
Lattice="30.0 0.0 0.0 0.0 30.0 0.0 0.0 0.0 30.0" Properties=species:S:1:pos:R:3:force:R:3 config_type=P_P_dimer energy=-2.96560316 pbc="T T T"
P        0.00000000       0.00000000       0.00000000       3.33862917       0.00000000       0.00000000
P        3.22413793       0.00000000       0.00000000      -3.33862917      -0.00000000      -0.00000000
2
Lattice="30.0 0.0 0.0 0.0 30.0 0.0 0.0 0.0 30.0" Properties=species:S:1:pos:R:3:force:R:3 config_type=P_P_dimer energy=-2.78641904 pbc="T T T"
P        0.00000000       0.00000000       0.00000000       3.15816777       0.00000000      -0.00000000
P        3.27931034       0.00000000       0.00000000      -3.15816777      -0.00000000       0.00000000
2
Lattice="30.0 0.0 0.0 0.0 30.0 0.0 0.0 0.0 30.0" Properties=species:S:1:pos:R:3:force:R:3 config_type=P_P_dimer energy=-2.61699986 pbc="T T T"
P        0.00000000       0.00000000       0.00000000       2.98454358       0.00000000       0.00000000
P        3.33448276       0.00000000       0.00000000      -2.98454358      -0.00000000      -0.00000000
2
Lattice="30.0 0.0 0.0 0.0 30.0 0.0 0.0 0.0 30.0" Properties=species:S:1:pos:R:3:force:R:3 config_type=P_P_dimer energy=-2.45696701 pbc="T T T"
P        0.00000000       0.00000000       0.00000000       2.81792528       0.00000000       0.00000000
P        3.38965517       0.00000000       0.00000000      -2.81792528      -0.00000000      -0.00000000
2
Lattice="30.0 0.0 0.0 0.0 30.0 0.0 0.0 0.0 30.0" Properties=species:S:1:pos:R:3:force:R:3 config_type=P_P_dimer energy=-2.30593304 pbc="T T T"
P        0.00000000       0.00000000       0.00000000       2.65833808       0.00000000       0.00000000
P        3.44482759       0.00000000       0.00000000      -2.65833808      -0.00000000      -0.00000000
2
Lattice="30.0 0.0 0.0 0.0 30.0 0.0 0.0 0.0 30.0" Properties=species:S:1:pos:R:3:force:R:3 config_type=P_P_dimer energy=-2.1635069 pbc="T T T"
P        0.00000000       0.00000000       0.00000000       2.50585128       0.00000000       0.00000000
P        3.50000000       0.00000000       0.00000000      -2.50585128      -0.00000000      -0.00000000
2
Lattice="30.0 0.0 0.0 0.0 30.0 0.0 0.0 0.0 30.0" Properties=species:S:1:pos:R:3:force:R:3 config_type=P_P_dimer energy=-1.52296035 pbc="T T T"
P        0.00000000       0.00000000       0.00000000       1.79766598      -0.00000000       0.00000000
P        3.80000000       0.00000000       0.00000000      -1.79766598       0.00000000      -0.00000000
2
Lattice="30.0 0.0 0.0 0.0 30.0 0.0 0.0 0.0 30.0" Properties=species:S:1:pos:R:3:force:R:3 config_type=P_P_dimer energy=-1.20158942 pbc="T T T"
P        0.00000000       0.00000000       0.00000000       1.42883185       0.00000000       0.00000000
P        4.00000000       0.00000000       0.00000000      -1.42883185      -0.00000000      -0.00000000
2
Lattice="30.0 0.0 0.0 0.0 30.0 0.0 0.0 0.0 30.0" Properties=species:S:1:pos:R:3:force:R:3 config_type=P_P_dimer energy=-0.66355964 pbc="T T T"
P        0.00000000       0.00000000       0.00000000       0.77635198       0.00000000       0.00000000
P        4.50000000       0.00000000       0.00000000      -0.77635198      -0.00000000      -0.00000000
2
Lattice="30.0 0.0 0.0 0.0 30.0 0.0 0.0 0.0 30.0" Properties=species:S:1:pos:R:3:force:R:3 config_type=P_P_dimer energy=-0.12 pbc="T T T"
P        0.00000000       0.00000000       0.00000000       0.38821276       0.00000000      -0.00000000
P        5.00000000       0.00000000       0.00000000      -0.38821276      -0.00000000       0.00000000
