16
Lattice="7.566594195261068 -0.15011367526971225 -0.18512702785395957 3.770156212352504 6.600213895976995 -0.11594206445238342 3.7328451185881035 2.1410933050328778 6.143965493543134" Properties=species:S:1:pos:R:3:force:R:3 config_type=P_subs virial="2.3326096800389564 0.6396850288208671 -0.1795646333314016 0.6396850288208671 0.7152000914847673 0.9318276882788019 -0.1795646333314016 0.9318276882788019 1.133526077514989" energy=-8.010966670000002 pbc="T T T"
Si       1.83336795       0.98699720       0.72866749       0.93634905       0.53286585       0.41015052
Si       1.75370148       0.90982832       3.06023546      -0.11521510      -0.04838653       0.13141604
Si       3.54374386       2.11215988       3.75420100       0.17733166       0.04650945      -0.18046562
Si       1.81221629       3.29739286      -0.12293601      -0.24592262       0.04145091      -0.08977321
Si       3.66790186       4.24613881       0.64654429       0.11541315       0.04287613       0.02250686
Si       3.55152580       4.29310599       2.89989548      -0.06262773       0.03852220       0.18873567
Si       5.58505036       5.35055963       3.65131465       0.08183548      -0.00030221       0.00114005
Si       3.61773003      -0.21409147      -0.28623407       0.11563298      -0.18432483      -0.13940740
Si       5.53203686       0.82162471       0.58467175      -0.17908298       0.29382250       0.18399935
Si       5.46665956       0.97736994       2.92502568       0.12911527      -0.06996612       0.07234539
Si       7.36702764       1.94007057       3.58595118       0.03077495       0.03306443       0.02085902
Si       5.56198415       3.17876570      -0.11002537       0.19113886      -0.08486330      -0.08922455
Si       7.59547381       4.27290105       0.52064838       0.03726700       0.02392786       0.05152933
Si       7.45474785       4.22438000       2.76691083      -0.01776518      -0.00477617      -0.03057354
Si       9.31198652       5.17493723       3.66213693      -0.01242858      -0.01183854      -0.03570581
P       -0.02240905      -0.04515736       0.01067859      -1.18181619      -0.64858167      -0.51753209
16
Lattice="7.639356118446268 -0.10612354485639491 -0.1930387208835437 3.7748066465868746 6.550118461149042 -0.1326182570151824 3.752122292670861 2.0855233082493276 6.1449179395848565" Properties=species:S:1:pos:R:3:force:R:3 config_type=P_subs virial="1.2753873334415975 -1.021120022462487 -1.1390132847537648 -1.021120022462487 1.2024542323033929 0.0758984597026553 -1.1390132847537648 0.0758984597026553 5.864982592549403" energy=-7.900789189999998 pbc="T T T"
Si       1.96366513       1.02062927       0.65621177       0.05225066       0.20813617       0.24988314
Si       1.82685789       0.97290856       3.09863989      -0.10130019      -0.01900985       0.15883913
Si       3.70731511       2.03732328       3.98958653      -0.17688356       0.01500049      -2.20512365
Si       1.95004200       3.25992159      -0.08192068      -0.11346669       0.00298769      -0.16653261
Si       3.83815007       4.27216406       0.58118562      -0.14000736      -0.23374633       0.18205848
Si       3.83388581       4.25957638       3.08997427      -0.02958098       0.16471443       0.09906351
Si       5.76386110       5.48245407       3.92586187       0.07424847      -0.04891935       0.05206109
Si       3.76905963      -0.08062600      -0.23401088      -0.00515554      -0.20390570      -0.22072769
Si       5.71727340       0.91173669       0.73160098      -0.94657502       0.56848940       0.41394393
Si       5.84931672       0.91900200       3.14915772       0.12612700      -0.07468982       0.27823776
Si       7.63334004       2.11216605       3.80321331       0.01775949       0.04908721       0.03957605
Si       5.80849292       3.29929752      -0.07561209       0.13842020       0.11370244      -0.14960797
Si       7.81703817       4.44577626       0.69214854       0.01235803       0.02768839       0.07991460
Si       7.62323214       4.30015139       3.07042634      -0.07865150      -0.02952901       0.02699950
Si       9.59480526       5.49885721       3.97497772       0.01144248      -0.00499502      -0.02697672
P       -0.13496823      -0.00752612       0.01973334       1.15901448      -0.53501115       1.18839146
16
Lattice="7.617472186016713 -0.12002130037789743 -0.17121813958872076 3.753076186588779 6.585874326341222 -0.1924160980914645 3.77166028819205 2.1362737568435923 6.22175731694933" Properties=species:S:1:pos:R:3:force:R:3 config_type=P_subs virial="0.9345259039995225 -0.5667807669315321 -1.2599466648374245 -0.5667807669315321 1.3821374500422234 0.4463369391869074 -1.2599466648374245 0.4463369391869074 5.318718930421971" energy=-7.885218399999999 pbc="T T T"
Si       1.83835980       0.93011903       0.79577848       0.36593041       0.51635211       0.44536573
Si       1.78119406       0.96791937       3.17522693      -0.14329805      -0.09126262       0.11030034
Si       3.84362916       2.23886609       4.01225241      -0.08742153      -0.04846974      -1.94266685
Si       1.85442118       3.27542799      -0.24163848      -0.13094919      -0.13597347      -0.16938690
Si       3.70881640       4.29126967       0.57498789      -0.13407326      -0.17609805       0.00300668
Si       3.80692644       4.37639784       3.06336043      -0.03596061       0.24326658       0.13330072
Si       5.63083976       5.56788194       3.77952565       0.07845127       0.03375922       0.03678176
Si       3.67372700      -0.00749855      -0.19658286      -0.06575825      -0.22235911      -0.27497639
Si       5.66701447       0.92924912       0.64470718      -0.87974732       0.57352409       0.37651306
Si       5.82377444       0.97904307       3.02770703       0.11510506      -0.07449453       0.29394933
Si       7.68490898       2.11272832       3.77796162       0.07562402       0.00932254      -0.02905628
Si       5.76892093       3.16789951      -0.00452541       0.04715678       0.20692943      -0.13286765
Si       7.73320219       4.37996758       0.68757343       0.04812354       0.00428898       0.11518031
Si       7.56886900       4.44428309       3.06992409      -0.11605575       0.00632459       0.02335959
Si       9.45708062       5.63499275       3.93558820       0.04835802      -0.06651314      -0.03334136
P       -0.14149225      -0.01958076      -0.02317883       0.81451486      -0.77859688       1.04453792
16
Lattice="7.561969938847882 -0.11041326233655509 -0.10614937580201625 3.732100991101175 6.527369866214121 -0.15521489216963524 3.700341952258984 2.142244219306046 6.14556633077725" Properties=species:S:1:pos:R:3:force:R:3 config_type=P_subs virial="0.7209381967312822 -0.7801498041823312 -0.7819327612442137 -0.7801498041823312 4.104045758204496 -1.1861591543237147 -0.7819327612442137 -1.1861591543237147 1.633015264090055" energy=-7.785172829999993 pbc="T T T"
Si       1.94450383       1.06177371       0.81562666      -0.34468249       0.02760415      -0.08597577
Si       1.83553916       1.11938177       3.03833182      -0.05847918      -0.03831349      -0.03386889
Si       3.79668931       2.04477550       3.78388477      -0.22758721      -0.01238129      -0.03629853
Si       1.87366355       3.28937986      -0.03641013      -0.09624774      -0.07626699      -0.01646518
Si       3.86190949       4.40498516       0.68581971      -0.24623629      -1.79716834       0.70519488
Si       3.73878979       4.42528739       3.11651845      -0.00977359       0.11983565       0.11838390
Si       5.52731596       5.38069624       3.85108919       0.03517878       0.03615191      -0.00883681
Si       3.84310686      -0.09586817      -0.05413531      -0.30789596      -0.14835623      -0.11575851
Si       5.56919723       0.95957550       0.63999595      -0.65971097       0.18489286       0.27296922
Si       5.74919421       1.03995491       3.09184158       0.06951646      -0.04390795       0.20044302
Si       7.57956585       2.13563466       3.87810769       0.07879594       0.02560524       0.04658643
Si       5.63231909       3.11535964      -0.08133491       0.13063104       0.28255569      -0.23954230
Si       7.58758002       4.40726608       0.63634102       0.10318502       0.03578221       0.00994257
Si       7.61136860       4.43035828       2.98403637      -0.04580337      -0.02749554       0.00863900
Si       9.38899674       5.37361561       3.89226506       0.01472587      -0.01825140      -0.01312936
P       -0.16676556      -0.10958676       0.02807225       1.56438368       1.44971352      -0.81228367
16
Lattice="7.6353196329827595 -0.1950438571199156 -0.11840120176965219 3.7001513945481803 6.58711535794846 -0.17238722565744413 3.7275711909894187 2.063083164049521 6.22622315373273" Properties=species:S:1:pos:R:3:force:R:3 config_type=P_subs virial="1.9437028783290655 -2.313639840713142 -1.655277467291813 -2.313639840713142 2.2985101263176304 0.6270974413779271 -1.655277467291813 0.6270974413779271 2.4556085577570164" energy=-7.817510630000001 pbc="T T T"
Si       1.96851737       1.02404319       0.69505315      -0.26456694       0.09844954       0.10132542
Si       1.89402047       1.07311806       3.10702397      -0.13056608      -0.06597153      -0.05717000
Si       3.74073140       2.16112628       3.94996562      -0.24175373      -0.03757869      -0.85411434
Si       1.78316181       3.33536985      -0.10962904      -0.13382027      -0.14211010      -0.02227809
Si       3.82130487       4.29600523       0.58595150      -0.28016326      -0.32232216       0.04494623
Si       3.84176504       4.40320441       3.14688077      -0.04252350       0.18824733       0.14847682
Si       5.64122173       5.40805275       3.88429311       0.08348745      -0.01817160       0.05875803
Si       3.72424683      -0.03450958      -0.14417760       0.05133007      -0.17153997      -0.07908237
Si       5.80871842       0.87075188       0.72118365      -1.84249336       1.04943926       0.76393979
Si       5.73272755       0.99730914       3.12707878       0.21261825      -0.13197402       0.15523913
Si       7.77111490       2.10913856       3.83447847       0.04221320       0.04335822      -0.00217747
Si       5.75116469       3.22457430      -0.10531323       0.21879604       0.07900346      -0.15058388
Si       7.69761436       4.33417513       0.66178875       0.05493701       0.00304720      -0.00720192
Si       7.69622608       4.41882665       3.11206134      -0.08091479       0.00313823       0.01182192
Si       9.68529874       5.41124924       3.95469880       0.04058859      -0.04291242       0.00335087
P       -0.17654527      -0.06074981       0.00956233       2.31283133      -0.53210277      -0.11525014
16
Lattice="7.645741032199048 -0.17327851448756357 -0.1005726727146591 3.7839714529175423 6.509804052737845 -0.19978837474383318 3.7208339571466817 2.04437791490222 6.152161201987573" Properties=species:S:1:pos:R:3:force:R:3 config_type=P_subs virial="1.7021774688612028 0.02682960362299225 0.24457965754666522 0.02682960362299225 0.6906990762467751 -0.5192058486473343 0.24457965754666522 -0.5192058486473343 3.8525789489224094" energy=-7.959054120000005 pbc="T T T"
Si       1.86810869       1.00550653       0.61933074       1.08703252       0.66926460       0.41934701
Si       1.89289939       0.94895394       2.94424852      -0.10557382      -0.10829443       0.15186084
Si       3.72529146       2.03951137       3.83872231      -0.04689062      -0.01348826      -1.38568780
Si       2.02414494       3.19023531      -0.08111277      -0.18513464      -0.06799561      -0.12296342
Si       3.77047874       4.22782733       0.67107967       0.13786520       0.06768209      -0.03688649
Si       3.80320304       4.25184018       3.06311978      -0.03791254       0.16768643       0.03482417
Si       5.81535482       5.39459107       3.76604254       0.03634207      -0.03770874       0.00751923
Si       3.75561641      -0.16779977      -0.10745577       0.07441642      -0.21370682      -0.10429757
Si       5.71758991       0.97054221       0.71790483      -0.19405270       0.20538490      -0.05602825
Si       5.74261796       1.09124406       3.01165085       0.15288137      -0.11435023       0.12109796
Si       7.76731722       2.14410024       3.86144692      -0.05909612       0.09744143       0.02204661
Si       5.76638903       3.24822980      -0.12808938       0.08164976      -0.06909725      -0.06994200
Si       7.77556213       4.35497297       0.67548828      -0.05476609       0.06567949       0.08757523
Si       7.67792431       4.31941743       2.94202307       0.00676390      -0.00081523      -0.04742923
Si       9.68792577       5.49070226       3.79957656       0.00512307       0.00145472       0.03272131
P       -0.01980423      -0.00997648      -0.07643709      -0.89864780      -0.64913709       0.94624238
16
Lattice="7.597839966388965 -0.1917261102662085 -0.10064057446646812 3.7079026726654463 6.5433554655603 -0.16235423374950536 3.7759658462369523 2.0537816130163185 6.176163815801536" Properties=species:S:1:pos:R:3:force:R:3 config_type=P_subs virial="-0.8524648717793716 -0.8452847442683309 -0.851143787609343 -0.8452847442683309 3.2167902260058536 -2.075302942069728 -0.851143787609343 -2.075302942069728 3.6711619260095336" energy=-7.84064502999999 pbc="T T T"
Si       1.83778622       1.04878887       0.76603790      -0.18419900       0.02370415      -0.06700163
Si       1.80797609       1.10618957       3.06957428      -0.16031006      -0.10129129      -0.07639541
Si       3.79811999       2.11369168       3.86586810      -0.05070391      -0.18792675      -1.17340784
Si       1.82309042       3.25369390      -0.16279924      -0.05136758      -0.16232803      -0.07274572
Si       3.77418837       4.39916599       0.79870557      -0.14345971      -1.46743811       0.25939082
Si       3.67014745       4.38526440       3.07798973      -0.02891256       0.22721545       0.24397708
Si       5.74913077       5.46540006       3.96471617       0.05034958      -0.01376805       0.06173791
Si       3.69928207      -0.04774905      -0.10399719      -0.09161744      -0.12533382      -0.10583504
Si       5.65686525       0.96583652       0.72200360      -0.35314395      -0.01822496       0.07166155
Si       5.81055492       0.99990743       3.09324094       0.10553313      -0.14781248       0.11755515
Si       7.60172869       2.04107214       3.73339517       0.06031477       0.08482460       0.00837082
Si       5.73081644       3.22403271      -0.02203537       0.12724006       0.12977168      -0.19393423
Si       7.70604066       4.49291252       0.71782795       0.04004709       0.00518907       0.07524813
Si       7.56713770       4.39750064       3.03052479      -0.06707531      -0.04536640       0.02743526
Si       9.54482002       5.59988679       3.99292948       0.01851690       0.04230028      -0.02052695
P       -0.18084254      -0.18711871      -0.07192860       0.72878797       1.75648466       0.84447008
16
Lattice="7.601960167499422 -0.1488196029228621 -0.1906046448754102 3.703531319092861 6.515690337864676 -0.16668481286609735 3.7425419232592105 2.062253829113099 6.197342311515343" Properties=species:S:1:pos:R:3:force:R:3 config_type=P_subs virial="0.18387443587658958 0.6473228546459091 -0.6295031770401405 0.6473228546459091 3.108031947371253 -2.984457363192684 -0.6295031770401405 -2.984457363192684 8.375358292178746" energy=-7.466896890000001 pbc="T T T"
Si       1.80359672       1.02086184       0.79406558       0.51272138       0.28889225      -0.00063167
Si       1.74736410       0.97496423       3.06959528      -0.13468812      -0.13779713       0.17294276
Si       3.74268374       2.16531801       3.99401410       0.08903508      -0.01772471      -3.46734922
Si       1.95464058       3.25536255      -0.17628690      -0.16818037      -0.18086549      -0.11248134
Si       3.89217688       4.40725303       0.68541871      -0.07670041      -1.79694105       0.50159943
Si       3.78757493       4.46253681       3.04393276      -0.01867081       0.25001185       0.26758836
Si       5.60757120       5.49546710       3.79861229       0.03658117       0.04348969      -0.01310837
Si       3.84596554      -0.15742626      -0.31158365      -0.21538219      -0.05734853      -0.04390236
Si       5.60797751       1.07972772       0.53659676       0.20267767      -0.45554051      -0.05367753
Si       5.74581384       0.98724160       2.98375024       0.03258751      -0.05942751       0.10551007
Si       7.73459284       2.13335916       3.70960504       0.01931116       0.06869520       0.03651205
Si       5.80451207       3.26544972      -0.10492084       0.13213610       0.08109047      -0.18586729
Si       7.68892231       4.53908429       0.65774765       0.02712209       0.05685044       0.11460255
Si       7.72295866       4.49695949       2.98920432      -0.02646854      -0.07420363      -0.05572754
Si       9.59487064       5.46159113       3.94346832      -0.00945942       0.02046160       0.05054897
P       -0.01520722      -0.15576213      -0.12716386      -0.40262231       1.97035706       2.68344115
16
Lattice="7.596493131460411 -0.15669592856589157 -0.131785754851159 3.7334040840420197 6.592447841672549 -0.12275130232420231 3.7044762263235786 2.098044458490544 6.2163849274859215" Properties=species:S:1:pos:R:3:force:R:3 config_type=P_subs virial="0.15688673878350556 0.17555282399839167 -1.2005915112027683 0.17555282399839167 1.3900866178182434 0.19455821344156238 -1.2005915112027683 0.19455821344156238 1.9896540161598946" energy=-8.039817159999998 pbc="T T T"
Si       1.92433657       0.90094190       0.78654186       0.19254257       0.45259639       0.05325920
Si       1.88233439       1.09576338       3.12114974      -0.29692369      -0.11468310      -0.04260303
Si       3.67030539       2.24185592       3.89744046       0.02491358      -0.10765262      -0.63043561
Si       1.87392361       3.35960633      -0.04432257      -0.09284511      -0.19407161      -0.01886104
Si       3.82498176       4.35013038       0.80110324      -0.30109487      -0.11871622      -0.18399069
Si       3.69192356       4.37505671       3.18964624      -0.04621558       0.26272299       0.02434219
Si       5.74849787       5.54848038       3.93595745       0.07887729      -0.02583634       0.04744642
Si       3.67988717      -0.02141895      -0.21076905      -0.01190384      -0.17472847      -0.16253513
Si       5.70895783       1.05969362       0.78637507      -0.42050111       0.17740588       0.09674226
Si       5.76835508       1.11003251       3.06288392       0.11283083      -0.06567696       0.17466324
Si       7.72426868       2.22278030       3.86431557       0.02886244       0.05635194       0.02455187
Si       5.78414069       3.34054058       0.02839325       0.13234101       0.07548918      -0.16474317
Si       7.64159080       4.44029153       0.68772103       0.00875035       0.04787686       0.06022905
Si       7.64528697       4.41064141       3.11884071      -0.04792075      -0.02625176      -0.01243761
Si       9.51959762       5.63704324       4.02745803       0.04467228      -0.04519761       0.02585656
P       -0.11617310      -0.01800803      -0.01237528       0.59361461      -0.19962855       0.70851549
16
Lattice="7.6486612997393335 -0.16289687414752918 -0.11220546251437356 3.7044932991630555 6.538994678606945 -0.10658595691108622 3.760400412635341 2.143370274803916 6.162242799433582" Properties=species:S:1:pos:R:3:force:R:3 config_type=P_subs virial="-0.2281624173809007 -0.2609716696249431 -0.4134954088732777 -0.2609716696249431 1.280228323543847 -1.1116688675388255 -0.4134954088732777 -1.1116688675388255 9.008177774159611" energy=-7.418122820000008 pbc="T T T"
Si       1.96434782       1.05648100       0.62722728      -0.05946822      -0.10498060      -0.02054364
Si       1.93646426       1.03212447       3.08123202      -0.15422914      -0.07038507      -0.02094926
Si       3.78217056       2.18018912       3.97008307      -0.17297687       0.02526820      -4.25112227
Si       1.83510662       3.27338770      -0.05921381      -0.12595034      -0.15199236      -0.02077113
Si       3.87148554       4.24369370       0.75728528      -0.03004909      -0.53304314      -0.18327112
Si       3.71594722       4.31685578       3.05448819      -0.01350202       0.24815425       0.18397361
Si       5.63648541       5.42847115       3.89324691       0.04983247       0.03383138       0.05830321
Si       3.89893482      -0.19394475      -0.22086889      -0.11889223      -0.08418000      -0.03827303
Si       5.78038565       0.91878227       0.78140531      -0.14419156      -0.13679433      -0.15244372
Si       5.72102482       1.02753636       2.96850474       0.16007448      -0.07391754       0.10675797
Si       7.81634748       2.06664311       3.79936411       0.04696818      -0.00184041       0.05427717
Si       5.87079935       3.17675111       0.04463445       0.07094968       0.07107947      -0.05600453
Si       7.72373194       4.45046273       0.60251769       0.02790755       0.05363779       0.01161664
Si       7.71220655       4.35473169       2.99187872      -0.04761706      -0.02951348      -0.06254094
Si       9.59591476       5.57422515       3.80210753       0.01596126       0.00548464       0.00352728
P       -0.02735830      -0.19222166      -0.15940196       0.49518291       0.74919120       4.38746372
16
Lattice="7.641501430778508 -0.14497549258273032 -0.16141593258557668 3.6937728004465735 6.584315032145453 -0.17679860063113767 3.7137339724723533 2.1200075863030214 6.167793118937307" Properties=species:S:1:pos:R:3:force:R:3 config_type=P_subs virial="0.6857458362370328 0.23434948021328905 0.4177281108734183 0.23434948021328905 3.2269785669957827 -0.677511610188261 0.4177281108734183 -0.677511610188261 4.984494592498255" energy=-7.719124610000009 pbc="T T T"
Si       1.76842701       0.98325504       0.61211203       0.58185164       0.43551065       0.55134276
Si       1.73138753       1.01711371       3.13360382      -0.08494176      -0.03325319      -0.02748782
Si       3.69823239       2.11850061       3.98997944      -0.30598222      -0.20484705      -2.07063484
Si       1.87336755       3.34587234      -0.22784871      -0.26840523      -0.20105524      -0.09087721
Si       3.86090816       4.33157544       0.55261420      -0.11576493      -1.27673841       0.30455880
Si       3.75216975       4.34765878       3.08650856      -0.00196124       0.16634275       0.20850844
Si       5.65872734       5.51117764       3.80997695       0.07933220       0.03148656       0.03578810
Si       3.83215209      -0.15487117      -0.17250701      -0.32360828      -0.17975201      -0.07049672
Si       5.55965954       1.00667927       0.71407931       0.08059666      -0.19670053      -0.02494067
Si       5.67436402       1.06469331       3.04532147       0.07335158      -0.03846835       0.18856345
Si       7.72057786       2.08736261       3.67475118       0.09064399       0.02619180      -0.01784071
Si       5.78146460       3.34448031      -0.00936456       0.13243245       0.07667107      -0.08215853
Si       7.74778905       4.48182851       0.59042103       0.02911786       0.04377325       0.05568323
Si       7.70842608       4.46922221       2.97874130      -0.07803711      -0.04019076      -0.02902502
Si       9.42122469       5.48862863       3.84484612      -0.03625186       0.02013833       0.01151798
P       -0.17846585      -0.17142046      -0.00102214       0.14762628       1.37089113       1.05749876
16
Lattice="7.656396829202084 -0.16345623612864335 -0.1784342767028601 3.7439787082559373 6.591704929493569 -0.11300816846848162 3.740303247916111 2.079956025311994 6.146967561614956" Properties=species:S:1:pos:R:3:force:R:3 config_type=P_subs virial="-0.7389297504868394 0.12414539418742443 -1.123007413015689 0.12414539418742443 0.7657560901401763 -0.9604275673867432 -1.123007413015689 -0.9604275673867432 6.876955307141266" energy=-7.706227200000001 pbc="T T T"
Si       1.82914460       1.06475465       0.76645954       0.14068207       0.18619583      -0.14332757
Si       1.90636377       1.10116915       3.04488520      -0.24469956      -0.17196893      -0.05034434
Si       3.79823245       2.09636850       3.88933470       0.18724066       0.06334740      -3.06683870
Si       1.84602612       3.18415426      -0.14475851      -0.00924940       0.04175368      -0.07019678
Si       3.85300498       4.30965423       0.80269252      -0.14901470      -0.21390305      -0.27606403
Si       3.75057312       4.35741398       3.19184762      -0.05700691       0.28596574       0.04116788
Si       5.65727120       5.49236540       3.90462470       0.00871487      -0.05933753       0.09399255
Si       3.72175664      -0.04134749      -0.15287614      -0.03592475      -0.15967163      -0.10279012
Si       5.60628029       0.93397327       0.58223141       0.13341677      -0.04714258      -0.11078225
Si       5.72004766       0.91878746       3.10182525       0.15925390      -0.16434750      -0.03829083
Si       7.66299362       2.15613493       3.72051662       0.00365203       0.08653872       0.05117818
Si       5.85201066       3.23459480       0.03387791       0.06761901       0.07270819      -0.13227479
Si       7.79837331       4.46416902       0.72911714       0.02987574      -0.02118861       0.08920980
Si       7.79817885       4.40711107       3.07309502      -0.02338762      -0.00705804      -0.06198253
Si       9.63610734       5.41510768       3.99476038       0.03659237      -0.00799976       0.05560653
P       -0.06709198      -0.10663700      -0.16741809      -0.24776449       0.11610808       3.72173700
16
Lattice="7.567967302734493 -0.10733566820809089 -0.1287860274151369 3.7141637611852447 6.553731166070269 -0.12901177904663097 3.7060056684849223 2.1374938317300964 6.17307242662973" Properties=species:S:1:pos:R:3:force:R:3 config_type=P_subs virial="2.0923661994705123 0.8799904043403504 0.4127649309668484 0.8799904043403504 4.633326949352252 -0.23575923976103103 0.4127649309668484 -0.23575923976103103 3.6351406070475445" energy=-7.802636749999991 pbc="T T T"
Si       1.76983051       0.90034520       0.72162592       1.35448144       0.97432738       0.72158152
Si       1.80506828       0.99603009       3.16535061      -0.17375801      -0.12996010      -0.07473153
Si       3.76563565       2.18849667       3.91274915      -0.13482263      -0.11288595      -1.06272533
Si       1.82614843       3.34944639      -0.14232667      -0.22266394      -0.09424090      -0.10162166
Si       3.77813933       4.40956785       0.60061016      -0.13976125      -1.72892978       0.46780265
Si       3.78760367       4.42984081       3.08489115      -0.00663484       0.22586300       0.08972016
Si       5.66756327       5.49633764       3.78362739       0.12094195      -0.01027015      -0.00468755
Si       3.66362160      -0.09794929      -0.16625502      -0.16676092      -0.19696638      -0.17874902
Si       5.51947004       0.96960996       0.74305957      -0.09951632       0.04640419       0.04411213
Si       5.61886506       1.12716764       3.17643117       0.14411653      -0.06554213       0.11507842
Si       7.53402788       2.21130348       3.91570059       0.00184978       0.05833550       0.04344916
Si       5.75204884       3.20393169       0.03729153       0.06541297       0.21490026      -0.12628640
Si       7.58517082       4.36857884       0.66441061       0.05045167       0.03702600       0.05602569
Si       7.51381580       4.52338031       3.11700406      -0.11135381      -0.00239798       0.00966812
Si       9.39945671       5.57609036       3.99312700      -0.01149331      -0.01018719       0.01041926
P       -0.10253692      -0.06728538       0.00203195      -0.67048930       0.79452422      -0.00905559
16
Lattice="7.595801485505852 -0.12402108927186228 -0.11917010730897415 3.7445152143342604 6.517454881265391 -0.13894850539865092 3.7621274704639136 2.132647241903316 6.164546176787825" Properties=species:S:1:pos:R:3:force:R:3 config_type=P_subs virial="0.7284024347306532 0.201135202358246 -0.672439323834739 0.201135202358246 1.490812729801486 -0.09977290659125604 -0.672439323834739 -0.09977290659125604 7.386549934884611" energy=-7.678029109999997 pbc="T T T"
Si       1.85125273       0.88857686       0.74189671       0.44913754       0.48252944       0.22930717
Si       1.86982411       1.02698040       3.07697861      -0.20541964      -0.09628084       0.01974588
Si       3.78795298       2.16185925       3.96971808       0.01018556      -0.03729441      -3.14086816
Si       1.95700176       3.25912268      -0.06224128      -0.21578640      -0.22388476      -0.08960591
Si       3.80284165       4.26639874       0.69589147      -0.17109740      -0.46894865      -0.06526377
Si       3.85206433       4.28209538       3.06181439      -0.02035299       0.26338913       0.15362822
Si       5.67972555       5.40534780       3.86993494       0.03363272       0.00976024       0.03883584
Si       3.80400082      -0.09972573      -0.19368041      -0.19684721      -0.16567810      -0.16802528
Si       5.60904109       0.95522110       0.69314084      -0.15099884       0.07292356       0.02086756
Si       5.85740447       1.02033768       3.14802278       0.14380348      -0.07406350       0.12560837
Si       7.75497337       2.09250171       3.80094266       0.03055742       0.01526858       0.07956008
Si       5.83851582       3.20629677      -0.13684078       0.05658226       0.10297253      -0.13620578
Si       7.77760781       4.39407861       0.68116954       0.02428830       0.02772512       0.06363633
Si       7.72860725       4.46293554       3.06266351      -0.03825026      -0.01921261      -0.05504947
Si       9.70043400       5.40215547       3.83293827       0.01706909      -0.01067138       0.04951799