17
Lattice="7.7435099263 0.0 0.0 3.8781589044 6.6915809802 0.0 3.8551684122 2.2397387631 6.3562095654" Properties=species:S:1:pos:R:3:force:R:3 config_type=P_int virial="5.872333580563252 -2.5868045144828855 -1.6531081788944322 -2.5868045144828855 11.180858878675192 -2.841961688953937 -1.6531081788944322 -2.841961688953937 11.813088786373333" energy=-1.5728827599999988 pbc="T T T"
Si       1.98275554       1.11276674       0.78597677       0.07614267      -0.03123899       0.02959184
Si      -0.08665174       0.10521540       0.03788899       0.48979512      -0.02228048       0.40369629
Si       1.88741215       1.09119489       3.16416375      -0.09265679      -0.24185411      -0.20623849
Si       3.78986722       2.22540294       4.01800978       0.10457707      -0.90536464      -0.34948434
Si       1.97224295       3.39708967      -0.00401409      -0.06979583      -0.00077833      -0.00901943
Si       3.93171284       4.42287267       0.84999865      -0.04255386      -0.35403906       0.02356546
Si       3.82753164       4.47393325       3.14835953       0.74751671       0.37731769      -0.69479294
Si       5.72264392       5.52487613       3.98457543      -0.01728954      -0.00425319       0.02193239
Si       3.85996242      -0.02609998      -0.11152602      -0.35802912      -0.26003955       0.18742129
Si       5.71893483       1.08895863       0.83337352      -0.70839807      -0.71652667       0.89725479
Si       5.79561286       1.17712253       3.22569901       0.27107715       0.47899638       0.02104669
Si       7.85037987       2.24391305       3.93559643       0.20110314       0.09427006       0.16819153
Si       5.84251643       3.33684425       0.13054984       0.13400568       0.93194830       1.12476710
Si       7.78103085       4.52510570       0.76624930      -0.05276907       0.03091560      -0.03852968
Si       7.72340751       4.43974001       3.12320186      -0.49984861       0.07506946      -0.43380886
Si       9.65926661       5.55585256       4.04744922      -0.99355497       2.01081294      -1.66262728
P       -5.40056418      -5.17366082      -1.32803299       0.81067832      -1.46295541       0.51703364
17
Lattice="7.833720727 0.0 0.0 3.8663042279 6.7441854414 0.0 3.8531317687 2.2538391875 6.3768564013" Properties=species:S:1:pos:R:3:force:R:3 config_type=P_int virial="8.588010126823091 -4.821762879360537 -6.881936302142679 -4.821762879360537 14.160271857116218 -1.9499587309042565 -6.881936302142679 -1.9499587309042565 16.4173328662259" energy=-0.6653072599999916 pbc="T T T"
Si       2.00613902       1.08584888       0.80794310       0.08282801      -0.04975150       0.04764299
Si      -0.12120332       0.00734846       0.04640976       0.30882658      -0.23790754       1.24436427
Si       1.99246947       1.06955616       3.09031060       0.01283600      -0.33742879      -0.20916211
Si       3.88713117       2.28180935       3.95083150       1.60206300      -4.08524911      -2.36992888
Si       2.01892718       3.37626295      -0.05579193      -0.05547688      -0.05818310      -0.04177898
Si       3.88904977       4.50571483       0.77082508      -0.16078072      -0.17755571      -0.30200260
Si       3.71720205       4.45013332       3.15068904       3.68093641       2.53296386      -5.13348876
Si       5.73491259       5.62099199       3.87551005       0.14468060       0.15767258      -0.23932045
Si       3.80680139       0.01176418      -0.18663817      -0.07936321      -0.03868369      -0.01131448
Si       5.88424217       1.16368549       0.75735270      -0.25642967      -0.01307398       0.23813640
Si       5.81761347       1.03324066       3.11478513       0.48148892      -0.22519645       0.03580573
Si       7.82410361       2.27563869       3.96607688       0.12013175       0.08459999       0.02899239
Si       5.80812726       3.33068087       0.01787537      -0.01257467       0.13515810       0.41469718
Si       7.80736619       4.59676356       0.72359631      -0.00132195       0.07865300      -0.00821207
Si       7.83750015       4.51126863       3.17685798      -0.01196709       0.04832679      -0.02465802
Si       9.58146530       5.67482538       3.95032712      -1.60259352       1.23619491      -0.37605144
P        3.00778838      -5.17804800      -1.59799267      -4.25328355       0.94946065       6.70627882
17
Lattice="7.6883604835 0.0 0.0 3.8936120746 6.7541672801 0.0 3.8773058056 2.2490006589 6.2846729141" Properties=species:S:1:pos:R:3:force:R:3 config_type=P_int virial="10.398693524518388 0.5269893392366016 0.17575462863561558 0.5269893392366016 5.965042721935102 2.350354003876167 0.17575462863561558 2.350354003876167 9.46038160631855" energy=-1.6238984999999957 pbc="T T T"
Si       1.98287641       1.10669565       0.80483072       0.58657130       0.17732215      -0.43117998
Si       0.02126424       0.00602044       0.01844356       0.00803797      -0.37694092      -0.71967906
Si       1.91871026       1.13888031       3.12330121       1.09899634       0.25177356       0.14519301
Si       3.85104135       2.22011116       4.07208233      -0.05121431       0.29976284       0.56747570
Si       1.98436108       3.39237366       0.02721188       0.03719134      -0.02567045       0.04985554
Si       3.91476019       4.49332828       0.78178687       0.03122699      -0.36201074      -0.27516278
Si       3.86037121       4.53984862       3.10181612       0.03564247       0.24694087      -0.20490795
Si       5.71613100       5.56700608       3.91351449       0.34082412      -0.47048034       0.33447950
Si       3.78137146       0.07289837      -0.09485591      -0.08601104       0.00378564      -0.15052378
Si       5.75759252       1.09912843       0.76287799      -0.43419597       0.33225332      -0.43044588
Si       5.76777455       1.12671137       3.07271100      -0.86148455       0.02066572      -0.05205028
Si       7.70625858       2.33743012       3.98535379       0.04400485       0.89574797       0.81920546
Si       5.80311870       3.24701009       0.11897718      -0.02953584      -0.12880237       0.05781765
Si       7.77222345       4.62835264       0.82751929      -0.01548707       0.03492563      -0.02742136
Si       7.68717707       4.59202905       3.16545225       0.00077868      -0.01722125      -0.03591563
Si       9.59147452       5.62146255       4.02533080      -0.41973789      -0.37651576       0.40938939
P        3.82155308      -6.39237725       2.29567598      -0.28560741      -0.50553585      -0.05612953
17
Lattice="7.7406426133 0.0 0.0 3.8981351067 6.6871532628 0.0 3.9256723158 2.2425924754 6.3355293415" Properties=species:S:1:pos:R:3:force:R:3 config_type=P_int virial="6.297891608665009 3.6207605958754714 3.778827547702387 3.6207605958754714 10.86690753750262 -2.038048044951739 3.778827547702387 -2.038048044951739 12.091153482322195" energy=-1.835719510000004 pbc="T T T"
Si       2.00313736       1.10143464       0.83075872       1.47973467       0.67165114      -0.51822188
Si      -0.02212601      -0.00110522      -0.05701130      -1.78972703       0.95150939      -2.16822848
Si       1.96610447       1.14028787       3.25440645       0.09871849       0.95048999       0.89460422
Si       3.83358444       2.19529025       4.09447227       0.17758835      -0.47144467       0.37195607
Si       1.99283573       3.37131321      -0.04155015      -0.42267412       0.41550328      -0.09120856
Si       3.96481768       4.42979705       0.79627164       0.13554829      -1.89141472      -0.56092307
Si       3.90903900       4.41592925       3.03821105      -0.88473391      -0.81786102       0.55674010
Si       5.87977159       5.60847372       3.91216367       0.90365136      -0.34863178       0.57429382
Si       3.86864557       0.02619419      -0.13121741       0.13112895       0.01823674      -0.15887821
Si       5.79351766       1.10098709       0.80693270      -0.16897390       0.07059116      -0.09706063
Si       5.90345762       1.11582600       3.19776828       0.13605861      -0.02175001      -0.05208824
Si       7.79366559       2.29738917       3.81458426       0.02728196       0.09923621       0.06125547
Si       5.79507081       3.38659653       0.04253161      -0.01566603      -0.10004350      -0.10250951
Si       7.82870428       4.60398390       0.77047607      -0.12575566       0.05744118       0.06075574
Si       7.74180372       4.57337199       3.15601887       0.08459859      -0.06765451       0.07457104
Si       9.62557307       5.59401121       3.99445603      -0.20247613      -0.05219939       0.10146284
P       -6.86733092       3.92208684      -4.45821074       0.43569752       0.53634050       1.05347929
17
Lattice="7.7473126541 0.0 0.0 3.8603033831 6.7544868407 0.0 3.905696256 2.2280536324 6.3942003089" Properties=species:S:1:pos:R:3:force:R:3 config_type=P_int virial="7.665719744142034 1.9102765019222803 2.585612124411049 1.9102765019222803 7.614472549351826 -0.3867756214625806 2.585612124411049 -0.3867756214625806 10.996146406708956" energy=-1.6897488700000025 pbc="T T T"
Si       2.02902958       1.02017283       0.90942534      -0.24558721       0.13268860      -0.00447389
Si       0.00618547       0.03143189       0.00935578      -0.03917007      -0.09361125      -0.09621381
Si       2.03096244       1.06393340       3.21612392      -0.04836375       0.10619334      -0.09602343
Si       3.88235728       2.19964180       4.00534333      -0.11403598       0.26548272       0.10375605
Si       1.95475509       3.39875979      -0.00282185       0.08639952       0.10850433      -0.12665616
Si       3.93601539       4.37043824       0.79149814       0.00680840      -0.02958498      -0.00206847
Si       3.88887965       4.49427014       3.24612496       0.04882546       0.03776282       0.06481329
Si       5.73495785       5.51369664       3.99396641      -0.35573253      -0.15065412       0.15821328
Si       3.80378390       0.03629792      -0.13456313      -0.94425936       0.24384138      -2.31132767
Si       5.74241700       1.12668966       0.88138768       0.85627584       0.54198330       0.05543257
Si       5.89041314       1.10501761       3.12040655       0.82620151       0.53134171       0.34989574
Si       7.73038012       2.15098301       3.99490230      -0.02666963      -0.37721761       0.54270062
Si       5.82537465       3.31392942       0.12622712      -0.23993994      -0.03101018      -0.09213859
Si       7.79733648       4.63685821       0.81255849       0.12318455      -0.66161938      -0.09613458
Si       7.85974182       4.60567718       3.10529800       0.05871507      -0.27463008       0.14382605
Si       9.68404385       5.59178963       4.02069801       0.27103187      -0.22969501       0.21438762
P        0.29493015      -6.80140034       2.05719623      -0.26368376      -0.11977561       1.19201136
17
Lattice="7.6900743505 0.0 0.0 3.9157639056 6.6474467516 0.0 3.918909121 2.2296458282 6.3416858304" Properties=species:S:1:pos:R:3:force:R:3 config_type=P_int virial="7.116116915944614 5.1181302003938836 3.211510547571856 5.1181302003938836 11.702242445477808 -3.493693319886235 3.211510547571856 -3.493693319886235 15.369470458224388" energy=-1.0854120500000022 pbc="T T T"
Si       1.94949729       1.14873724       0.82854044       0.40447474      -0.39799567       0.42746480
Si       0.10704157      -0.03834020       0.02180664      -0.33339001      -0.42234301       0.58236659
Si       1.99431328       1.02436671       3.20943955      -0.29626095       0.12398488       0.17990386
Si       3.89221837       2.20863484       3.99775129      -0.02523715      -1.30160182      -0.53724231
Si       2.03539752       3.41060228       0.03916049       0.28240861       1.16052956       1.28644864
Si       3.84360774       4.44391443       0.81011100       0.04003823      -0.31284478      -0.42410582
Si       3.90786514       4.47766031       3.26037346      -2.33452240       1.19906522      -2.77294667
Si       5.80684269       5.53361839       3.98188513       2.62132300       2.33574693      -2.56843995
Si       3.83787372      -0.00918194      -0.03996893       0.05622022      -0.08528014      -0.01764732
Si       5.77708979       1.07563080       0.83769369      -0.10375575      -0.00621085       0.05824552
Si       5.68051943       1.12266689       3.25722352      -0.00073978      -0.07953447      -0.00437063
Si       7.71866188       2.21974539       3.95631461      -0.10832611       0.11291473       0.02281154
Si       5.77552060       3.29183552       0.01904015       0.11677648       0.00204452      -0.06374081
Si       7.86207322       4.53313127       0.81761709       0.07217105       0.13694346       0.16016307
Si       7.73174233       4.36175264       3.08892773       0.15419627       0.12470931      -0.19958242
Si       9.53752784       5.57373521       3.99611232      -0.26557866       0.10839405      -0.16380122
P       -6.75480933      -2.56826584       5.04040173      -0.27979776      -2.69852190       4.03447314
17
Lattice="7.7315269379 0.0 0.0 3.9205380653 6.6745225342 0.0 3.8727605833 2.2238193133 6.3237560534" Properties=species:S:1:pos:R:3:force:R:3 config_type=P_int virial="20.12690908771398 -1.7370279427295985 1.386798966520237 -1.7370279427295985 18.334612572893743 2.14379032669242 1.386798966520237 2.14379032669242 4.365016488412437" energy=-0.4026807900000051 pbc="T T T"
Si       1.99906742       1.04533062       0.82807318       0.03818536      -0.02880838      -0.05048589
Si       0.02427301       0.05518068       0.08427650       0.02177540      -0.05477879       0.12763813
Si       1.85204402       1.10206375       3.13830201       0.67559628       1.18237511      -0.69916458
Si       3.82702815       2.19941726       3.99178364       0.03952142       0.06195694       0.38627374
Si       2.07016530       3.39772372      -0.01565455       0.41003359      -0.00955496       0.20861717
Si       3.85640171       4.39187205       0.83609070      -0.06806635      -0.37289528      -0.08340755
Si       3.88782519       4.37547418       3.11524077      -0.28190501      -5.52758529      -2.84900418
Si       5.76039537       5.47907161       3.91682401       5.55631651      -2.66354134       2.22540733
Si       3.79147645      -0.04408797      -0.03502914       0.00427438       0.07330171       0.05923429
Si       5.63901298       1.05018959       0.90882722      -0.05947095       0.01563130      -0.02235212
Si       5.80496855       1.13263305       3.19772365      -0.35049109       0.49393540      -0.35091343
Si       7.73694022       2.25340181       3.90296897      -0.06258077       0.38377960       0.24644760
Si       5.72421512       3.26616585       0.02575539      -0.16952863      -0.03087641       0.07720259
Si       7.82161963       4.43187988       0.77420310       0.01199248      -0.04351773      -0.13679533
Si       7.86391778       4.43857564       3.12981595       0.31442435      -0.31473740      -0.46966319
Si       9.74514655       5.51040626       4.04090020      -2.05683337      -0.35613330       1.27075816
P       -3.77286386      -2.61512668      -2.71696112      -4.02324358       7.19144879       0.06020727
17
Lattice="7.7985348025 0.0 0.0 3.8836300025 6.7014549809 0.0 3.9080751189 2.2616358054 6.337142677" Properties=species:S:1:pos:R:3:force:R:3 config_type=P_int virial="11.939890284911815 -5.207414908186873 -3.9571889882375433 -5.207414908186873 7.107731307140896 3.399584668421273 -3.9571889882375433 3.399584668421273 15.486205370280231" energy=-0.9703712499999995 pbc="T T T"
Si       1.96387924       1.09809906       0.79774953       0.06638618      -0.02835623       0.02967266
Si      -0.08550277       0.02130411       0.03908404       0.09364310      -0.09735461       0.27544492
Si       1.93791952       1.16248258       3.16899303      -0.41758964      -0.09099654       0.10306177
Si       3.84850407       2.25542197       4.07442389      -1.10585682       0.41380060       1.76424186
Si       1.88595717       3.32478134      -0.09472211      -0.16344964       0.02175603      -0.02641894
Si       3.92718434       4.50514246       0.69060896      -0.06711278       0.23155088      -0.21710998
Si       3.83821326       4.41382643       3.12546024       0.04829864       0.26489298       0.11158196
Si       5.85163069       5.54093860       3.84183483       0.15766834      -0.03694067       0.05016874
Si       3.85757378      -0.03137788      -0.10031626      -0.13201999      -0.70254239      -0.57636822
Si       5.79565376       1.11314181       0.79011874       3.59122818      -2.46617474      -4.41805956
Si       5.86335819       1.10425000       3.18648461       2.41302125      -1.13001831       2.20420376
Si       7.82414069       2.33476490       3.91274892       0.01562760       0.12296194       0.11682099
Si       5.96945901       3.33460589       0.19603900       0.49303886       0.16817462       0.06060191
Si       7.87888202       4.59349165       0.76901859       0.05559620       0.19862856      -0.03101512
Si       7.79754464       4.41883220       3.05981845      -0.06454341      -0.09084055      -0.09014569
Si       9.68877623       5.62274782       3.95662631      -0.29971688      -0.02327730      -0.20543486
P        4.44945921       1.97589803       1.92133017      -4.68421921       3.24473572       0.84875382
17
Lattice="7.7437304014 0.0 0.0 3.9209545362 6.6660062945 0.0 3.9233086361 2.2309800577 6.3634769293" Properties=species:S:1:pos:R:3:force:R:3 config_type=P_int virial="6.365038773081243 1.6635841297841745 0.38351678021360114 1.6635841297841745 10.217498211667705 0.08322683786978535 0.38351678021360114 0.08322683786978535 4.53933807442929" energy=-1.765330519999992 pbc="T T T"
Si       1.93646294       1.11079356       0.77636158      -0.23605046       0.02921903       0.25496304
Si      -0.03953541       0.01226763      -0.03907874      -0.04553936      -0.00338960      -0.23334098
Si       1.97629882       1.13491911       3.20640706       0.06674221       0.04220872       0.06287503
Si       3.91678424       2.29563722       3.97393091      -0.00768392      -0.02441064      -0.01391549
Si       1.93342435       3.25969386       0.04140939      -0.43339340       0.21102120       0.19212918
Si       3.92735607       4.46503778       0.72432110      -0.11230571       0.27332885       0.16789765
Si       3.83143296       4.45543615       3.19494380      -0.00323446      -0.08394427       0.09399138
Si       5.81673393       5.47765146       3.93614933      -0.11233068       0.06056667      -0.14600813
Si       3.76961600      -0.08817290      -0.05929102      -0.76979122      -2.63639977      -0.03696846
Si       5.75914608       1.03107784       0.84655548       0.33724886      -0.01120302       0.44120309
Si       5.83932761       1.01937049       3.11927942      -0.08973145       0.03587060      -0.07155580
Si       7.80980758       2.23880821       3.95073216      -0.00647576      -0.23686088      -0.15434256
Si       5.97651416       3.36830477       0.10401389       0.74780342       0.66587315       0.03506857
Si       7.81398045       4.49991079       0.77753739      -0.04391677       0.42717385       0.10994788
Si       7.77917691       4.43449296       3.05491767       0.06423710      -0.02109325      -0.40838207
Si       9.67155363       5.60689256       4.06666536       0.07254039       0.06868002      -0.12967784
P        3.98524054       2.01970443      -0.51994656       0.57188121       1.20335936      -0.16388448
17
Lattice="7.7645160132 0.0 0.0 3.8979566203 6.7569469677 0.0 3.8511062407 2.22211601 6.3093705844" Properties=species:S:1:pos:R:3:force:R:3 config_type=P_int virial="9.901956828772015 -1.5811705814294628 0.2847345276230364 -1.5811705814294628 9.069754831594597 -0.48128555500446857 0.2847345276230364 -0.48128555500446857 5.492256875047126" energy=-1.706170699999987 pbc="T T T"
Si       2.01031151       1.05199310       0.86874076       0.25037019       0.08028562      -0.07518546
Si      -0.03952533      -0.00160158      -0.01919138      -0.00650385       0.05169543      -0.14094736
Si       1.85069021       1.09197334       3.12268087       0.39110638       0.15995272      -0.08669462
Si       3.78577603       2.14470896       4.01616288       0.02152446      -0.26563754       0.31706178
Si       1.97777653       3.43272493      -0.07165184      -0.07381252       0.00047227      -0.09447034
Si       3.89753490       4.52783234       0.85121912      -0.02201090      -0.22881421      -0.21443570
Si       3.78887334       4.47260401       3.19894050       0.06458804      -0.42653124      -0.00687609
Si       5.79518960       5.62868691       4.04400395       0.50879140      -0.12306553       0.40434109
Si       3.92400822       0.08552971      -0.02621990      -0.01408658       0.03994212       0.09715129
Si       5.77323231       1.14121269       0.73435735      -0.35311800       0.26020077      -0.46845405
Si       5.73492719       1.12301937       3.08587930      -1.75017842       1.23861788      -0.31351123
Si       7.76520474       2.26696278       3.76223399       0.50259122       0.50977983       0.31085168
Si       5.95971758       3.27763678       0.02676869       0.13089267      -0.05754403       0.08340219
Si       7.81740624       4.55557309       0.77415560      -0.00100827       0.00793638      -0.03017189
Si       7.68866869       4.53896575       3.09671198      -0.17196922       0.08282989      -0.15988105
Si       9.72821787       5.56348531       3.92226914      -0.18873667      -0.68745081       0.51640803
P       -0.15490093       4.56042753      -3.63290767       0.71156005      -0.64266955      -0.13858826
17
Lattice="7.8104083328 0.0 0.0 3.8956488447 6.648607126 0.0 3.8914713124 2.2339632909 6.388700298" Properties=species:S:1:pos:R:3:force:R:3 config_type=P_int virial="19.196663349583478 0.39807942827498133 3.667662210085334 0.39807942827498133 4.354491590622862 2.6074134317907154 3.667662210085334 2.6074134317907154 14.652010400663507" energy=-0.7541008400000067 pbc="T T T"
Si       1.93252947       1.03203591       0.76198096      -0.02924625      -0.15459534       0.01774479
Si      -0.08067934      -0.02475928       0.01602706      -0.10554203       0.10708928       0.10915762
Si       1.91306182       1.12054463       3.21631204      -0.52346040       0.37513163      -0.31034477
Si       3.91252348       2.23112712       4.04407611       0.02961251      -0.08171141       0.06355676
Si       1.99479343       3.39917755      -0.01553224      -1.77368798      -0.80328078       2.66519845
Si       3.98844400       4.50501749       0.75562529       0.60841367       0.70333959       0.63222167
Si       3.89218575       4.40790599       3.14617225       0.07892492      -0.39343765      -0.01898332
Si       5.79505276       5.55690206       3.97430758      -6.59274062      -0.03555492      -4.56343881
Si       3.85552669      -0.02536644      -0.04703345       0.01853392       0.08496644      -0.06683911
Si       5.82608412       1.15979285       0.77538387       0.05471790       0.05213397       0.04232269
Si       5.89458983       1.00971014       3.17146515       0.11336574       0.06470314      -0.16183998
Si       7.81844396       2.24043565       3.93205931      -0.01953065       0.04789110      -0.02688576
Si       5.80842545       3.29088058       0.05121269       0.24248241      -0.24750352       0.24458991
Si       7.75983116       4.53028311       0.84768435      -0.40727283       0.39252664       0.02789112
Si       7.75437732       4.39163167       3.18391081       0.71677166      -1.50681635      -0.95442684
Si       9.64991120       5.51296123       4.05962167       0.44054875       0.24982188       0.06943700
P        7.40991947       5.85115764       4.94481150       7.14810926       1.14529630       2.23063857
17
Lattice="7.7071533994 0.0 0.0 3.9124786695 6.6858432234 0.0 3.8864892539 2.2395938073 6.3809494255" Properties=species:S:1:pos:R:3:force:R:3 config_type=P_int virial="19.03409103043078 3.1507223222186216 -2.5720054011701055 3.1507223222186216 16.365203460570765 -0.14755441835782013 -2.5720054011701055 -0.14755441835782013 3.8919150390359487" energy=-0.7603932900000103 pbc="T T T"
Si       1.98258580       1.05886452       0.84770769       0.02296369      -0.08112984      -0.07917817
Si      -0.06711633      -0.03001493       0.06817578       0.05065965      -0.08006176       0.13921045
Si       1.95258014       1.12168169       3.14242494      -0.26896905      -0.46199774      -0.39023898
Si       3.92151828       2.18708367       4.05302012       0.86147911      -1.52408575       1.18522034
Si       2.01876954       3.36572206      -0.00508163       0.05815852       0.06944519       0.15985525
Si       3.88786020       4.39997118       0.67981663       0.41581259       0.08396031      -0.31788907
Si       3.88559821       4.49457044       3.13481472       6.15965294       3.70563707      -2.80167695
Si       5.76827797       5.50850004       3.91501053      -0.20741658      -0.07902143       0.39242595
Si       3.88073172      -0.00510338      -0.08194731      -0.02239086      -0.03622866       0.06216762
Si       5.68118249       1.08274508       0.67257232       0.02322981       0.05092787      -0.21662085
Si       5.80447017       1.11155755       3.29238342       0.11649053       0.13698614      -0.40461692
Si       7.80157180       2.25995574       3.96293900      -0.38805448      -0.31274095       0.35072660
Si       5.82013986       3.42682979       0.07154324      -0.07207792       0.27759807       0.12058936
Si       7.70923716       4.50475250       0.73336909      -0.16905806       0.02770149      -0.13774577
Si       7.77017215       4.51999357       3.21748860      -1.11789484       0.20072586      -0.61042604
Si       9.74846631       5.58341195       4.04773424      -0.51238411       3.47978888       2.16339337
P       -5.48927688       3.60929726       3.50233456      -4.95020095      -5.45750475       0.38480385
17
Lattice="7.7000336656 0.0 0.0 3.8876254576 6.6666728842 0.0 3.91873849 2.2258778788 6.3578775187" Properties=species:S:1:pos:R:3:force:R:3 config_type=P_int virial="6.498690675054359 -5.200934614423819 -2.1885995465012145 -5.200934614423819 15.294785203078241 -3.396475092905283 -2.1885995465012145 -3.396475092905283 18.235562201149204" energy=-0.5027000299999997 pbc="T T T"
Si       2.02440244       1.13393243       0.93980734      -0.25413888      -0.06518736       0.02912345
Si      -0.00018133       0.08020191       0.01932430      -0.06688435       0.02923439      -0.03849974
Si       1.84797020       1.09272750       3.15903490       1.65878704       0.39699976      -1.72712497
Si       3.78740764       2.23942189       4.04492359      -0.00659766       0.06384503      -0.05720085
Si       1.94173891       3.44704601      -0.04579061       0.49613855      -0.22101200       0.28072797
Si       3.85485311       4.44020086       0.82527245      -0.00146173      -0.04584001       0.05042695
Si       3.87435989       4.42872665       3.18531729       0.03015087      -0.10019760      -0.09659388
Si       5.71674717       5.58947856       3.94039587       0.05790434      -0.80717787      -0.39317789
Si       3.92847643      -0.00444787      -0.00088535      -0.04301089       2.42927908       2.94223731
Si       5.66916975       1.04195372       0.80330045      -0.13158438       0.06626155       0.02227884
Si       5.67518937       1.05289619       3.23670719      -0.36594459       0.10085230      -0.38958574
Si       7.78261409       2.27469910       3.93157274      -2.33868502       4.03258970      -3.87942702
Si       5.90630077       3.21962202       0.04319670      -0.07783869      -0.12702363       0.14902082
Si       7.76241310       4.49905340       0.71157049      -0.68978278      -0.64368904       0.77767680
Si       7.72255596       4.48955044       3.22928577       0.24062333       0.14955300       0.40289731
Si       9.65080989       5.59161998       4.02798898       0.08770412       0.04325016       0.05029042
P        0.67129789       5.18066456      -1.36136031       1.40462075      -5.30173745       1.87693024
17
Lattice="7.7647969019 0.0 0.0 3.8548941782 6.6875671279 0.0 3.8975342559 2.2467078824 6.380929264" Properties=species:S:1:pos:R:3:force:R:3 config_type=P_int virial="21.16242277275028 -2.257253233984758 1.2303501141846331 -2.257253233984758 17.641030360480258 2.6382281814302306 1.2303501141846331 2.6382281814302306 3.982080744079898" energy=-0.2393117800000084 pbc="T T T"
Si       2.02152798       1.05742208       0.78794793       0.22492670       0.20522112       0.47871847
Si       0.02963420      -0.02423688       0.02526530       2.18130852      -0.03321960      -0.90031269
Si       1.93173869       1.16907595       3.17932616      -0.02256092       0.04319884       0.09766986
Si       3.82408169       2.26368363       4.10370113       0.11947053       0.07753784      -0.14962450
Si       2.00211617       3.35621085      -0.03965340       0.03098590      -0.36389914      -0.25254158
Si       3.94756108       4.43492808       0.83934182       0.37336382      -0.36488627       0.25829072
Si       3.82244054       4.47185907       3.28505776       0.02228093       0.03034137       0.04551825
Si       5.80954268       5.56555080       3.97150792       0.00912388      -0.06733641      -0.07517046
Si       3.90044255      -0.00817764      -0.00611592      -6.12090253       1.84934214      -1.84130909
Si       5.71854685       1.18306298       0.78658639      -0.49614986       6.13309388       2.71126604
Si       5.75297803       1.12528909       3.18752588       0.04752783       0.18198807       0.05173864
Si       7.81110988       2.24776740       3.93042311      -0.33319302       0.21882509      -0.19019366
Si       5.87120469       3.27171521       0.08849514      -0.22146742      -0.42708800      -0.35092165
Si       7.86119358       4.56265890       0.81487212      -0.60412802      -0.55449880       0.77813690