15
Lattice="7.6136135381 -0.1386369416 -0.1040250732 3.7529239589 6.5730637791 -0.1805700688 3.7405545585 2.1124023372 6.2332427187" Properties=species:S:1:pos:R:3:force:R:3 config_type=P_vac_migration virial="-0.6214246063613569 -0.28540925602473877 0.31638399597081257 -0.28540925602473877 -0.9931690224025176 0.30323333167495115 0.31638399597081257 0.30323333167495115 0.23453416719456932" energy=-7.2490996199999955 pbc="T T T"
Si       1.51655044       1.10702677       3.01035803      -0.23592791      -0.14325476      -0.14257338
Si       3.47065513       1.86873489       3.82963732       0.18011310       0.21876359       0.54813784
Si       1.64274724       3.23635356      -0.19128656      -0.19789852      -0.05035612      -0.02704712
Si       3.61769118       4.21798309       0.53092746       0.43768348       0.90255740      -0.06940917
Si       3.72162238       4.12005324       3.13262069      -0.11100654       0.26172029      -0.41811438
Si       5.42180697       5.36859947       3.50433702       0.03111801      -0.01619225      -0.02307515
Si       3.63212588      -0.25692193      -0.14627565      -0.27929603      -0.22931055       0.01686333
Si       5.47585884       0.78006152       0.56114527       1.03024939      -0.26355663      -0.34116893
Si       5.60111211       0.92058437       3.02005340      -0.01809973      -0.02220495       0.04978947
Si       7.39825962       2.08503957       3.66629088       0.06798904       0.04715329      -0.01527550
Si       5.94269668       3.04165737      -0.08526150      -0.38897504       0.30157556      -0.02459395
Si       7.58058982       4.33281220       0.52160315      -0.05478867       0.06803439       0.04547908
Si       7.48225600       4.20676699       2.87284336       0.03144017       0.01360397      -0.01066231
Si       9.28597912       5.04938459       3.58564703       0.05966537      -0.07798909       0.07500586
P        0.03253844       0.06784921      -0.07304621      -0.55226612      -1.01054417       0.33664432
15
Lattice="7.5083460099 -0.1391271201 -0.1027058872 3.7863280161 6.5655552411 -0.178326225 3.7624899585 2.1344870799 6.1554067099" Properties=species:S:1:pos:R:3:force:R:3 config_type=P_vac_migration virial="-4.226770080026746 -1.285935170626857 -1.9158048025874042 -1.285935170626857 -2.7265106692953456 -1.6022944123445804 -1.9158048025874042 -1.6022944123445804 -1.1012922305180872" energy=-6.284777489999996 pbc="T T T"
Si       1.45823816       0.92205414       2.98979085      -0.17976538      -0.26369699      -0.46151836
Si       3.68763435       1.82420252       3.61314085       0.43505669       0.54121196       1.00420455
Si       1.83884037       3.31437380      -0.34938991      -0.42835762      -0.31550251      -0.17976152
Si       3.73066153       4.12084951       0.42138226       0.52083434       1.37039219       0.14081311
Si       3.65442989       4.22414393       2.93152673      -0.02652497      -0.07786645      -0.09040960
Si       5.23828473       5.26264596       3.44350835      -0.00076497      -0.08005449       0.08298996
Si       3.59938844      -0.14851928      -0.38807612      -0.66942268      -0.20197136      -0.06696401
Si       5.22037632       0.85707698       0.40337195       1.35846388      -0.13975741      -0.04437779
Si       5.78002144       1.06396079       2.82654249      -0.16835449       0.03108675       0.08484283
Si       7.30458036       1.79520491       3.37911757      -0.13354856       0.09136900       0.09112501
Si       5.74371734       3.07056745      -0.04837661      -0.09526085      -0.02495620      -0.00689428
Si       7.38828259       4.26538743       0.29103962      -0.00929030      -0.01789521       0.06747747
Si       7.41047337       4.28642674       2.74696163      -0.01623821       0.01074155      -0.01250576
Si       9.40524098       5.13393108       3.62719870       0.06431190       0.01506460      -0.01429524
P        0.45390622       0.21445147       0.12846072      -0.65113879      -0.93816542      -0.59472637
15
Lattice="7.5353879608 -0.1399782268 -0.102728088 3.7645807226 6.5387277531 -0.1804049771 3.7234822681 2.1010234057 6.1959343542" Properties=species:S:1:pos:R:3:force:R:3 config_type=P_vac_migration virial="-5.317967263274269 -2.1330168400515763 -2.0196766224525398 -2.1330168400515763 -1.9133689029793324 -0.4532845912978045 -2.0196766224525398 -0.4532845912978045 -0.44236266061295204" energy=-6.408398989999995 pbc="T T T"
Si       1.72403786       0.90389346       2.95423807      -0.37339610      -0.26212636      -0.13545466
Si       3.49269339       1.94408630       3.79633939       0.76670193       0.47567675       0.86774861
Si       1.75344709       3.18179463       0.00798903      -0.47907539      -0.32536209      -0.19229780
Si       3.62212335       4.12329953       0.58943862       0.51934656       1.18355863      -0.02595739
Si       3.67411419       4.15879805       2.99551279      -0.10953535      -0.08183250       0.02552302
Si       5.43762375       5.40014008       3.46106953       0.02486664      -0.00722535       0.05880552
Si       3.54660081      -0.26245162      -0.19761635      -0.53954099      -0.16291143      -0.22607777
Si       5.32575368       0.97192393       0.58936211       1.16793174      -0.23804138      -0.02519471
Si       5.68955722       0.91723506       2.87953772      -0.21480848       0.04950428       0.14816084
Si       7.31817002       1.96362775       3.41082965      -0.07034720       0.02919383       0.09377240
Si       5.65741353       3.18436903       0.10312757      -0.17434538       0.02566294      -0.05793470
Si       7.49760523       4.06766851       0.49740678      -0.00831510       0.01795210       0.11930775
Si       7.46699391       4.30822059       2.99523358       0.00367422       0.00296936      -0.05766855
Si       9.17858309       5.25305156       3.71909520       0.07122117       0.00901402       0.00120136
P        0.47111052       0.27492663       0.16355947      -0.58437826      -0.71603280      -0.59393394
15
Lattice="7.5944799862 -0.1383928257 -0.1022498316 3.7929499254 6.6373310881 -0.1784243542 3.7477721292 2.1289952832 6.224820471" Properties=species:S:1:pos:R:3:force:R:3 config_type=P_vac_migration virial="-4.39603568915442 -2.1396897760887246 -1.7966198788696541 -2.1396897760887246 -2.1421399264851813 -1.2989811230729025 -1.7966198788696541 -1.2989811230729025 -0.008788400116760187" energy=-6.533626460000008 pbc="T T T"
Si       1.64782756       0.90116532       2.81666633      -0.40778140      -0.44359262      -0.25069432
Si       3.56372507       1.98072554       4.02596027       0.87571358       0.57716798       0.31551774
Si       1.65693840       3.20545850      -0.01102249      -0.36432083      -0.28168947      -0.31074451
Si       3.66166922       4.21149275       0.45640301       0.52962723       0.90354122       0.25953146
Si       3.76867087       4.17740361       3.02714206      -0.01709715      -0.00956400      -0.05350229
Si       5.52130615       5.30430461       3.30131852      -0.00434104      -0.11368778       0.23731232
Si       3.82403994      -0.08849158      -0.26422108      -0.54165186      -0.19627900      -0.16379929
Si       5.49077712       0.89354962       0.52163399       1.28396788      -0.03331107       0.23116013
Si       5.72527318       0.95301764       2.96914752      -0.23871688       0.04761465       0.06073301
Si       7.54336738       1.97714736       3.62755028      -0.04138436       0.06205092       0.11402523
Si       5.74971146       3.17664287      -0.29987245      -0.19569171       0.02727318       0.03282184
Si       7.48142505       4.47916369       0.34770905       0.04115420      -0.05233339       0.05301585
Si       7.55258876       4.40946141       2.88414249      -0.01255057       0.04709005      -0.03012066
Si       9.25210647       5.36723438       3.66901501       0.05731843      -0.03414192      -0.01343284
P        0.52730759       0.30723779       0.21968310      -0.96424553      -0.50013873      -0.48182367
15
Lattice="7.5462341095 -0.1398623868 -0.1030964797 3.7494768863 6.5844647186 -0.18044236 3.7584641364 2.1115027201 6.1695621604" Properties=species:S:1:pos:R:3:force:R:3 config_type=P_vac_migration virial="-5.256292948781546 -2.2103731346013658 -2.123335466332819 -2.2103731346013658 -1.9133164252459949 -0.7783417048486032 -2.123335466332819 -0.7783417048486032 -0.6085702222068079" energy=-6.444584259999999 pbc="T T T"
Si       1.71071286       0.95913552       2.92235034      -0.62839484      -0.34615479      -0.44907609
Si       3.71040529       1.82614477       3.85600035       0.52013311       0.29306116       0.62599743
Si       1.76605470       3.18995970      -0.26358003      -0.41953578      -0.32308677      -0.20466854
Si       3.59191897       4.16432478       0.52751510       0.76800195       0.95178885       0.38599703
Si       3.74595505       3.94470337       2.97459457      -0.13764295       0.11354136      -0.21676544
Si       5.51268602       5.36457282       3.62403424       0.09411518      -0.01575877       0.15897507
Si       3.58109531      -0.34380086      -0.17329262      -0.72107085      -0.21762164      -0.12244858
Si       5.32138803       0.90432003       0.50909498       0.92127152      -0.11370692       0.21440204
Si       5.60948659       0.98245322       3.07689296       0.00773830      -0.08567771      -0.07384654
Si       7.50124728       1.95290648       3.38082257      -0.08881750       0.07118394       0.20229607
Si       5.60373186       2.85885993      -0.01326713      -0.16641563       0.21518600      -0.18110505
Si       7.51532671       4.23172708       0.50709338       0.00022853       0.02358732       0.08991891
Si       7.49341632       4.35760494       2.92631161       0.00954005       0.01944563      -0.06845996
Si       9.48940799       5.33473204       3.47403384       0.01752957      -0.02720183       0.18544892
P        0.62847034       0.15204434       0.37623918      -0.17668069      -0.55858581      -0.54666528
15
Lattice="7.5973652815 -0.1386453516 -0.1025618237 3.7816603849 6.5640943866 -0.1789998454 3.752233949 2.1003979379 6.2222410909" Properties=species:S:1:pos:R:3:force:R:3 config_type=P_vac_migration virial="-4.641170914138975 -3.190353985571578 -1.200060514507154 -3.190353985571578 -2.2764904793495786 -1.2803039367740574 -1.200060514507154 -1.2803039367740574 -0.9398655426628442" energy=-6.4726299900000015 pbc="T T T"
Si       1.90843333       0.81427588       2.97301662      -0.42546305      -0.22461772      -0.17435797
Si       3.62892410       1.73692272       3.92817184       0.58253406       0.72853629       0.69230970
Si       1.78473181       3.22207779      -0.21249208      -0.52122313      -0.40922078      -0.18772009
Si       3.72342418       4.28291439       0.61722646       0.53619701       0.78056404       0.20491826
Si       3.51603300       4.20938791       3.05173537      -0.05407447      -0.10906445      -0.12587191
Si       5.50346151       5.41754251       3.73753598       0.08852924       0.00423876      -0.01711235
Si       3.67815105      -0.17148841      -0.13257449      -0.38609159      -0.17560201      -0.10838286
Si       5.48087719       0.81176300       0.70371693       1.27953391       0.10165012      -0.08427868
Si       5.75606600       0.90150135       3.02776935      -0.10901874       0.05532442       0.10952313
Si       7.15819612       1.97787776       3.73851607      -0.00726865       0.00944628      -0.02164238
Si       5.66327215       3.01278734      -0.02445271      -0.24941514       0.13598796      -0.00718804
Si       7.47123915       4.27959860       0.29980453       0.01871308       0.07773449       0.06558366
Si       7.66022382       4.27116111       2.97527224      -0.03209820      -0.00385008      -0.02668581
Si       9.26918433       4.93531525       3.52662302       0.04187012      -0.00012489       0.03632867
P        0.51007644       0.45454930       0.24649108      -0.76272443      -0.97100243      -0.35542335
15
Lattice="7.6186283303 -0.138107094 -0.102607892 3.7668206821 6.559539671 -0.1796341451 3.7618346201 2.1358533757 6.2074208902" Properties=species:S:1:pos:R:3:force:R:3 config_type=P_vac_migration virial="-5.486610466046056 -2.697832588050976 -1.1745445723132835 -2.697832588050976 -2.300057118734445 -0.7034196040839635 -1.1745445723132835 -0.7034196040839635 -0.6960315132176369" energy=-6.248382680000006 pbc="T T T"
Si       1.74825875       1.01855354       3.09102667      -0.54171874      -0.40005681      -0.45687108
Si       3.39743067       1.91978995       3.79451675       0.70995039       0.38379267       0.74463918
Si       1.69386148       3.20153750      -0.20183194      -0.43288745      -0.34047519      -0.21716195
Si       3.78213449       4.23056536       0.50561164       0.54409688       0.93124607       0.15601289
Si       3.53415490       4.08849923       3.10048363       0.00018106       0.06778773      -0.17172212
Si       5.50416621       5.21025532       3.45603761       0.05240730       0.00643379       0.15861423
Si       3.63762489      -0.30743955      -0.24001747      -0.73143860      -0.06850761      -0.07593587
Si       5.35792061       0.74553577       0.71137812       0.98253059       0.16188715       0.13860419
Si       5.45410852       0.86258117       3.16736206      -0.04576533      -0.04372619      -0.14924520
Si       7.42891419       2.02442124       3.62864785       0.03960394       0.02876511      -0.00462252
Si       5.70754597       3.07865645      -0.10940187      -0.09657769      -0.05391500      -0.02461151
Si       7.32804277       4.20241593       0.31180657       0.07622473      -0.11335316       0.09637099
Si       7.54008231       4.05065874       2.88525234      -0.02040427       0.01214414      -0.02086344
Si       9.54320642       5.08657844       3.61668993      -0.00237023       0.01377685       0.03315711
P        0.64958580       0.26573401       0.26603276      -0.53383260      -0.58579955      -0.20636489
15
Lattice="7.5238814222 -0.1387007296 -0.102475603 3.7470758853 6.5175154403 -0.1780320011 3.6970509366 2.1063624226 6.1416406962" Properties=species:S:1:pos:R:3:force:R:3 config_type=P_vac_migration virial="-5.424931612943681 -2.5259779139778686 -2.5459057381460326 -2.5259779139778686 -1.9006581220217686 -1.5278971373608066 -2.5459057381460326 -1.5278971373608066 -0.998080257929391" energy=-6.183394489999998 pbc="T T T"
Si       1.49824389       0.93711205       2.96890777      -0.35390729      -0.42449109      -0.49383060
Si       3.48075238       1.98019720       3.80168354       0.69870648       0.45327368       0.55062715
Si       1.67749923       3.23861802      -0.05161897      -0.61481569      -0.52113941      -0.20820927
Si       3.41980902       4.02932657       0.34207728       0.67203606       0.73431672       0.15319484
Si       3.65357195       4.23753556       2.77426094      -0.04599964      -0.02526035       0.06561713
Si       5.34567032       5.17815521       3.42491411       0.03981316      -0.01392409       0.06366526
Si       3.76024396      -0.26394512      -0.40540846      -0.60527781      -0.09934293      -0.00029987
Si       5.35617997       0.76335420       0.57370026       1.28675471       0.05446820       0.07286417
Si       5.60550664       0.95827082       2.89539632      -0.21403170      -0.03860391       0.05285443
Si       7.34304363       1.90720028       3.55436140       0.01417076       0.05529114       0.09295689
Si       5.70505204       3.16762885      -0.10582208      -0.17822357      -0.01076438      -0.03085855
Si       7.70737000       4.28226682       0.64723050      -0.00900415      -0.02464601       0.10451683
Si       7.51963640       4.29526202       2.84091540       0.00018070      -0.00162959      -0.01247433
Si       9.23484571       4.93877502       3.42434603       0.03863558       0.04957054       0.01927190
P        0.59337600       0.37379435       0.21551516      -0.72903762      -0.18711851      -0.42989597
15
Lattice="7.5202798251 -0.1386562917 -0.1035638384 3.7838075258 6.5100535606 -0.1802245273 3.7111551554 2.095133986 6.2180523117" Properties=species:S:1:pos:R:3:force:R:3 config_type=P_vac_migration virial="-5.334782572902874 -2.1589507140926214 -2.0423189185663144 -2.1589507140926214 -2.1687203353866487 -0.7314880857079054 -2.0423189185663144 -0.7314880857079054 -1.0607891613560687" energy=-6.047407590000006 pbc="T T T"
Si       1.59609140       0.91396938       2.84905223      -0.44922931      -0.22789118      -0.53455507
Si       3.55421312       1.94808670       3.89747605       0.60152310       0.32681549       0.70898037
Si       1.81688780       3.36292901      -0.28822174      -0.70101964      -0.68068569      -0.18353018
Si       3.50084386       3.92912433       0.62060049       0.60964859       0.75246070       0.05875065
Si       3.64233130       4.19997094       2.87207554      -0.10439588      -0.02450896      -0.01958160
Si       5.30989206       5.31622313       3.58144118       0.07511529       0.01534806       0.06783027
Si       3.63557036      -0.30769902      -0.25169231      -0.66540490      -0.11438312      -0.20771407
Si       5.23862844       0.64736633       0.66432956       1.13024195       0.09070240       0.03218434
Si       5.59242218       0.80503762       3.03763244      -0.10411925       0.02319370       0.03867514
Si       7.34535040       1.76049030       3.43757390      -0.08740923       0.10150022       0.18397096
Si       5.73236453       3.01907700      -0.06362277      -0.14613367       0.00128875      -0.03968264
Si       7.76213782       4.37939364       0.46752161      -0.07286250       0.01082737       0.12233317
Si       7.43092047       4.15144010       2.88678668       0.01120592      -0.00745528      -0.06603579
Si       9.22854449       5.02498174       3.43311266       0.03736685       0.01789860       0.11616308
P        0.58137999       0.43609485       0.18562635      -0.13452734      -0.28511108      -0.27778863
15
Lattice="7.5415878928 -0.1403988256 -0.1023768114 3.7759415597 6.573709997 -0.1794155023 3.6921375428 2.1315143638 6.1938570262" Properties=species:S:1:pos:R:3:force:R:3 config_type=P_vac_migration virial="-5.3424534562106984 -2.9003135329439953 -2.18969483058115 -2.9003135329439953 -2.20955791677705 -1.1804606291478112 -2.18969483058115 -1.1804606291478112 0.18125825008951935" energy=-6.413765000000012 pbc="T T T"
Si       1.58770752       0.90293338       2.87771353      -0.74392024      -0.49327365      -0.69950041
Si       3.36502982       1.89951709       3.76924917       0.49915488       0.37006285       0.12007996
Si       1.64298011       3.08130818      -0.13455701      -0.43951671      -0.56879738      -0.19536406
Si       3.60820398       4.22511819       0.39233527       0.68322694       0.61753732       0.31290460
Si       3.61074641       4.26275176       3.12767811      -0.06413149      -0.05366556      -0.05201679
Si       5.30657350       5.32985345       3.62996069      -0.02116407      -0.04146770       0.07966698
Si       3.71749138      -0.11003161       0.03269827      -0.79568330      -0.40125654      -0.47793167
Si       5.53515195       1.00350235       0.72726247       0.88596011      -0.07126137       0.05237986
Si       5.62001203       1.02161782       2.81561609      -0.03085865       0.10082363       0.20031049
Si       7.18909276       2.00501434       3.41155651      -0.08316790       0.08306290       0.32718454
Si       5.71927384       3.09226829      -0.37295395      -0.21237890       0.05840091      -0.03348651
Si       7.73851209       4.15147443       0.31316936      -0.09372728       0.21676991       0.17124038
Si       7.45584472       4.19733726       2.88228870       0.03866655      -0.04071326      -0.06770733
Si       9.11851042       5.21010557       3.55671842       0.06424312      -0.04600551       0.01627430
P        0.78684606       0.32528681       0.39973465       0.31329693       0.26978342       0.24596564
15
Lattice="7.5016557587 -0.1401221721 -0.1039996201 3.7376171721 6.6246541804 -0.1800857429 3.6988074339 2.1049255283 6.2100101909" Properties=species:S:1:pos:R:3:force:R:3 config_type=P_vac_migration virial="-5.347045338382198 -2.7164269631484643 -1.9100432375207834 -2.7164269631484643 -1.7372507259666012 -1.1650262114960572 -1.9100432375207834 -1.1650262114960572 -0.9063591476145039" energy=-6.372782920000006 pbc="T T T"
Si       1.50925789       0.84250386       2.95516019      -0.30840436      -0.23967703      -0.45302768
Si       3.44522249       1.93352589       3.88701974       0.80024256       0.55462128       0.42469285
Si       1.81627036       3.29153683      -0.17962326      -0.55768606      -0.39617900      -0.19933723
Si       3.61662117       4.29583209       0.50613876       0.64566961       0.93418045       0.12282013
Si       3.75847231       4.36001434       2.92448389      -0.05754631      -0.13294864       0.11025990
Si       5.45103402       5.31299700       3.45384253       0.03803129      -0.11886836       0.13874399
Si       3.63900329      -0.13307785      -0.20696719      -0.75253629      -0.29216055      -0.17759860
Si       5.32524563       0.78542632       0.68821956       0.98327056       0.12688151      -0.06623358
Si       5.64228922       1.06985213       2.88503824      -0.18287210       0.00429731       0.20503890
Si       7.39624243       1.75661159       3.51170697      -0.14480089       0.12196979       0.18326401
Si       5.68022403       3.07628061      -0.13229185      -0.08682516       0.00233343       0.00739668
Si       7.34173310       4.31445267       0.36050068       0.04987340      -0.00216353       0.05756317
Si       7.24009765       4.29442585       3.01704691      -0.00461304       0.03672757      -0.07075859
Si       9.12232416       5.02788316       3.66103579       0.03714613       0.03616502      -0.01658081
P        0.64531564       0.33050845       0.18281560      -0.45894936      -0.63517924      -0.26624316
15
Lattice="7.6007665502 -0.138574335 -0.10216725 3.7849978961 6.542746406 -0.1797490055 3.736132802 2.1072875628 6.1492438459" Properties=species:S:1:pos:R:3:force:R:3 config_type=P_vac_migration virial="0.20085032836717942 0.3929178048545139 -0.26760281176823497 0.3929178048545139 -0.3763988505156757 0.5794231588081229 -0.26760281176823497 0.5794231588081229 -1.857186324195979" energy=-7.296005949999994 pbc="T T T"
Si       1.55267297       0.83463368       3.03034761      -0.28958144      -0.22604676      -0.18136763
Si       3.56853717       1.92372676       3.70935862       0.32016460       0.22911042       0.63706429
Si       1.88295661       3.14622694      -0.15080651      -0.33646625      -0.35481704      -0.11061649
Si       3.69395417       4.14219806       0.52143528       0.26137636       1.00975934      -0.25767901
Si       3.60582516       4.06452531       2.74475763      -0.21427479       0.00919491       0.36376724
Si       5.48781787       5.39373265       3.40315424       0.09664690       0.02809885       0.02105769
Si       3.64354637      -0.28196278      -0.31379288      -0.22609035      -0.07106075      -0.10136501
Si       5.54928629       0.81838375       0.61230986       0.82736181      -0.41678650      -0.50332737
Si       5.54591158       0.90720983       2.65331639      -0.25919164      -0.04477914       0.64539069
Si       7.41445753       1.94743948       3.72676032       0.03157143       0.05914516       0.10395687
Si       5.85174657       3.06114034      -0.06012060      -0.13514849       0.13093769      -0.08868031
Si       7.54994173       4.49871852       0.39717405       0.02595000       0.09236091       0.06316897
Si       7.34058432       4.15593011       2.76213524       0.03356676       0.02331490      -0.01542610
Si       9.35868527       5.19452335       3.70013047       0.07224800      -0.01323085      -0.12542054
P        0.06513641      -0.01704503       0.06028560      -0.20813289      -0.45520111      -0.45052329
15
Lattice="7.515169781 -0.1378618185 -0.1033755397 3.7628688327 6.5285288679 -0.1794738641 3.7347496234 2.1258776898 6.2359197475" Properties=species:S:1:pos:R:3:force:R:3 config_type=P_vac_migration virial="-5.026893630542105 -2.93158258465316 -0.7122986599464953 -2.93158258465316 -1.6013060411897073 -0.5051314942933391 -0.7122986599464953 -0.5051314942933391 0.04971094453707749" energy=-6.620612789999996 pbc="T T T"
Si       1.68631605       1.06431394       2.97447464      -0.78711642      -0.60178935      -1.00438624
Si       3.31433789       1.88986134       3.81956208       0.36016658       0.27806963       0.14254476
Si       1.57166723       3.26551810      -0.13907079      -0.37355328      -0.96122577      -0.06372295
Si       3.54053665       4.31743548       0.44839967       0.69202150       0.23770854       0.18847369
Si       3.55313838       4.17477049       3.08460590      -0.02870538      -0.05008872      -0.01875109
Si       5.43352465       5.29721274       3.57893119       0.01335570       0.09835973       0.10597222
Si       3.49045804      -0.07884501      -0.23645676      -0.89493881      -0.25534672       0.02814321
Si       5.59794154       0.82068890       0.78328797       0.61182861       0.30256947       0.13259925
Si       5.48457744       0.84291634       2.96110286      -0.00639247       0.02073870       0.10164753
Si       7.07351763       1.85343415       3.68874949       0.04313416       0.10489715       0.07082275
Si       5.73464297       3.10621670      -0.09450438      -0.20978877       0.13813433      -0.05884739
Si       7.68424811       4.09653098       0.34822083      -0.22383064       0.41109358       0.08657010
Si       7.42470394       4.17444844       2.76524956      -0.01103865      -0.05551780       0.02783599
Si       9.19585123       5.16984607       3.79886530       0.03788583      -0.03156498       0.01738775
P        0.89580605       0.55039981       0.56437434       0.77697205       0.36396222       0.24371042
15
Lattice="7.5914098121 -0.1402094527 -0.1026946543 3.7893660825 6.5118970779 -0.1794592699 3.7225861401 2.1269169359 6.1988004533" Properties=species:S:1:pos:R:3:force:R:3 config_type=P_vac_migration virial="-5.7195710623928875 -3.1182709421233543 -2.292072341174853 -3.1182709421233543 -2.098344763130652 -1.2767945274772243 -2.292072341174853 -1.2767945274772243 -0.6839012816042642" energy=-6.330029329999988 pbc="T T T"
Si       1.73956178       0.85610621       2.96831263      -0.60664322      -0.37395609      -0.68518583
Si       3.50680819       2.02043519       3.81403993       0.54480891       0.38520759       0.39404721
Si       1.67698719       3.27429007      -0.05006742      -0.42340126      -0.81875459      -0.13212421
Si       3.71841389       4.10453505       0.45728400       0.61438677       0.56736038       0.17817769
Si       3.77447673       4.12565860       3.08857793      -0.06394523       0.00209625      -0.09221256
Si       5.40226638       5.33162942       3.73327689       0.05664425       0.08257220      -0.06050347
Si       3.76590058      -0.17984535      -0.20199251      -1.04458907      -0.02774165      -0.16408664
Si       5.52468483       0.81043521       0.76944298       0.67514576       0.07375253       0.05100116
Si       5.54932884       1.11420489       2.90467998       0.04620547      -0.03107834       0.02564464
Si       7.22895436       1.97462457       3.54590979       0.14269380      -0.00808707       0.07374028
Si       5.79665588       3.01227252      -0.12505212      -0.16577255       0.02941804      -0.04739143
Si       7.64585562       4.16776827       0.43543287       0.02256104       0.08812039       0.02981465
Si       7.63342088       4.26116111       2.94885730      -0.03079505      -0.02878008       0.00511060
Si       9.40049784       5.10548416       3.72764444       0.02724491       0.01184485       0.01614199
P        0.93061067       0.40767153       0.26908479       0.20545547       0.04802556       0.40782593
15
Lattice="7.5975312172 -0.1382179899 -0.1032262243 3.7818487998 6.602244996 -0.1784129586 3.7130638835 2.1208235152 6.2563140475" Properties=species:S:1:pos:R:3:force:R:3 config_type=P_vac_migration virial="-4.974836694681577 -2.597028829087691 -1.962170559452586 -2.597028829087691 -2.656478689086856 -1.2644071086514685 -1.962170559452586 -1.2644071086514685 -0.6760511393983695" energy=-6.21286748 pbc="T T T"
Si       1.77753911       0.94121198       3.11079631      -0.50809979      -0.21045489      -0.76238537
Si       3.54965681       1.82963989       4.00705085       0.61258481       0.39958739       0.15547432
Si       1.84082177       3.28510130      -0.22774135      -0.68766458      -0.67759189      -0.21789570
Si       3.59915375       4.26239406       0.46332102       0.59679345       0.48192505       0.27452332
Si       3.60364545       4.19643345       3.03591101      -0.00086360       0.01460089       0.06872323
Si       5.37753266       5.39431758       3.31916724       0.02839604      -0.15592276       0.34584370
Si       3.54153734      -0.17232311      -0.06519673      -1.16977552      -0.03317695      -0.19278953
Si       5.50105530       0.75602714       0.56589907       0.52671541       0.33075821       0.26493514
Si       5.62643958       1.04504568       2.85042173      -0.05899988      -0.07023493       0.07522596
Si       7.36836539       1.97971278       3.65242384      -0.02575646       0.03370952       0.12544929
Si       5.55313134       3.14399893       0.02745505      -0.03535170      -0.10919142      -0.09838759
Si       7.57127355       4.46510049       0.41397774       0.14139572      -0.22738990       0.11313506
Si       7.54332988       4.11314629       2.93884546      -0.02451848       0.04454005      -0.03079012
Si       9.35179067       5.18781390       3.67338052       0.01859698       0.04655972       0.01820591
P        0.97464702       0.46394242       0.37490087       0.58654761       0.13228193      -0.13926764
15