17
Lattice="7.8174270632 0.0 0.0 3.8553592425 6.6663899445 0.0 3.8859957015 2.2423426806 6.2843497413" Properties=species:S:1:pos:R:3:force:R:3 config_type=P_double virial="9.6466623986272 -5.872262572471889 -4.747454717176069 -5.872262572471889 13.784227444548716 -0.19614195204773396 -4.747454717176069 -0.19614195204773396 12.672956316775595" energy=-9.25092416999999 pbc="T T T"
Si      -0.08659670       0.10526624       0.03754270       0.11352261      -0.18252949       0.10516376
Si       1.90283385       1.09246415       3.12824290       0.06943131       0.24652772       0.26562396
Si       3.81536497       2.22397065       3.97257490       0.11618003       0.07116379      -0.09035526
Si       1.96098112       3.38435299      -0.00374663       0.19663791       0.19558649       0.32201735
Si       3.93097658       4.40751133       0.84107093       0.02273305       0.05630253       0.04581062
Si       3.83118647       4.46264675       3.11230968      -0.17734348       0.14687337      -0.18613671
Si       5.73650637       5.51079747       3.93966440      -1.34105860       1.15459244      -0.34946097
Si       3.89667744      -0.02625147      -0.11072413       0.73632875      -0.42092032       0.46798750
Si       5.76575760       1.08619393       0.82454338       0.04900825       0.08583674       0.08341227
Si       5.84820081       1.17848898       3.18972714       0.04126735      -0.34038234      -0.29653031
Si       7.91291720       2.24229964       3.89125432       2.24226094      -3.42204922      -1.62589871
Si       5.86891690       3.32448149       0.12984303      -0.03631209      -0.00017118      -0.03225641
Si       7.81675908       4.50938732       0.75768396      -0.26748233      -0.24253844       0.07697307
Si       7.76410780       4.42828817       3.08764059       2.00757871       1.31068071      -1.94973967
Si       9.70998909       5.54181493       4.00202821       0.04981363      -0.12356511      -0.03124424
P        1.99370068       1.11013337       0.77667803      -0.87408112       0.10753088       0.38676418
P        6.64097687       3.62411453       4.69516133      -2.94848492       1.35706142       2.80786958
17
Lattice="7.7924619578 0.0 0.0 3.8962883532 6.6949056059 0.0 3.860200594 2.2322655307 6.288132145" Properties=species:S:1:pos:R:3:force:R:3 config_type=P_double virial="10.695676869769212 -5.053870069950693 -1.5883563414723378 -5.053870069950693 12.48987560680757 0.4179189385152864 -1.5883563414723378 0.4179189385152864 9.555482307868584" energy=-9.623580220000008 pbc="T T T"
Si      -0.12114329       0.00731941       0.04598219       0.55552781       0.04654865       0.39927228
Si       1.99601849       1.05870873       3.04595965       0.20627225      -0.40475662       0.75639803
Si       3.89035702       2.26214631       3.89473372       1.56101450      -1.14648493      -0.50114369
Si       2.03384192       3.35144613      -0.05546170      -0.05504950       0.07421657       0.07964061
Si       3.90322212       4.47235116       0.75980215       0.01876706      -0.15409383       0.11587034
Si       3.73596756       4.41467589       3.10617883       1.22324115       0.30688308      -0.94725588
Si       5.75310678       5.57678397       3.82005907      -0.06664671      -0.22767213      -0.04636962
Si       3.78612092       0.01176542      -0.18564810       0.47430175      -0.44664550       0.07399551
Si       5.86320309       1.15500015       0.74645026       0.01390126       0.23288721       0.11507131
Si       5.80036911       1.02256444       3.07037118       0.22356990      -0.72459307       0.06815121
Si       7.80638264       2.25602687       3.91132834      -0.14417102       0.25641132      -0.37308542
Si       5.80211697       3.30623398       0.01700268      -0.13428990       0.17972901       0.28820250
Si       7.80129811       4.56283592       0.71302082      -0.01987408      -0.18445151       0.08067622
Si       7.83552386       4.47566905       3.13295101      -0.19317716       0.17615634      -0.05412229
Si       9.57924196       5.63050835       3.89424647      -1.06311980       1.98467260      -0.23733966
P        2.00520594       1.07724654       0.79646209      -0.99253412       0.33007122      -0.98105756
P       -1.66408636      -3.17305199       4.45188318      -1.60773339      -0.29887840       1.16309612
17
Lattice="7.7777814228 0.0 0.0 3.8793113141 6.7452054717 0.0 3.8589048693 2.2261294592 6.3921216" Properties=species:S:1:pos:R:3:force:R:3 config_type=P_double virial="8.641127028105602 -2.1393699930891907 -0.0786041887066784 -2.1393699930891907 13.416570444178594 -0.6331827827452563 -0.0786041887066784 -0.6331827827452563 8.601803360390223" energy=-10.012214970000002 pbc="T T T"
Si       0.02104224       0.00592384       0.01896136      -0.05685602       0.27934076       0.14630684
Si       1.90954363       1.12743608       3.17701201      -0.11212077      -0.06610654      -0.02109202
Si       3.84829648       2.20455511       4.14001901      -0.40078619       2.31622545       0.18748983
Si       1.97765425       3.38793111       0.02681196      -0.00505027      -0.12267544       0.03205122
Si       3.91521942       4.48490687       0.79513608       0.09073264      -0.00347114      -0.10445257
Si       3.84349169       4.52389491       3.15571980       0.25131150       0.32657888      -0.31814042
Si       5.70637371       5.54712453       3.98066788      -0.13156269      -0.23712471      -0.04844245
Si       3.82647333       0.07311004      -0.09605493       0.57324443      -0.33970846      -0.11326313
Si       5.80901875       1.09522063       0.77608129      -0.01560803       0.17893516       0.12119776
Si       5.80347982       1.11528482       3.12649809       0.50022347       0.22712061      -0.80681539
Si       7.74924374       2.32217153       4.05165651      -0.10969021       0.07830877       0.04311761
Si       5.84104005       3.24237792       0.12003405       0.18968486      -0.39837603       0.35595041
Si       7.81725762       4.61992421       0.84032664      -0.03063769      -0.03929394       0.08075454
Si       7.71556965       4.57617832       3.21862538      -0.09900884      -0.28565729      -0.21307623
Si       9.62590134       5.60142670       4.09324675       0.59515259      -0.98234817       0.26206514
P        1.99047636       1.10267939       0.81873469      -0.69273501       0.57011956       0.09510878
P       -7.67318817      -2.08256329      -1.85469730      -0.54629376      -1.50186745       0.30124007
17
Lattice="7.8079001471 0.0 0.0 3.9081853795 6.7344079966 0.0 3.8675429152 2.250891384 6.2893489089" Properties=species:S:1:pos:R:3:force:R:3 config_type=P_double virial="12.005038157951153 1.2990228969546704 -2.0140979115300683 1.2990228969546704 10.674519317761554 -0.9727379424411007 -2.0140979115300683 -0.9727379424411007 2.90731872193044" energy=-10.242705419999993 pbc="T T T"
Si      -0.02253804      -0.00113706      -0.05723384      -0.09334695      -0.13777864       0.31198250
Si       1.93709754       1.14449700       3.23132205       0.37323459       0.09529399      -0.26721071
Si       3.80605993       2.20631256       4.06527372      -2.12410877      -1.22172885       0.99842010
Si       1.99846791       3.39515631      -0.04137827       0.06974626       0.13645065       0.24025747
Si       3.97261557       4.46025058       0.79053428       0.16297224      -0.05784078       0.17482931
Si       3.88452563       4.44371482       3.01504376      -0.30293989       0.49412512      -0.95530686
Si       5.85772518       5.64312267       3.88330178       0.47541785       0.94286450       0.14000423
Si       3.90316407       0.02633124      -0.13070208       0.23060047      -0.14890218       0.15924119
Si       5.82930317       1.10779325       0.80125804       0.09379434       0.15957475       0.16133077
Si       5.90809067       1.11986216       3.17465110       0.77081394      -0.58495823      -0.49892979
Si       7.80132711       2.30855075       3.78608798       0.52544447      -0.13273592      -0.17232367
Si       5.83338971       3.40991695       0.04207738      -0.05829835       0.02282461       0.00163051
Si       7.87053640       4.63504070       0.76497159      -0.03708917      -0.15617289       0.21532469
Si       7.75176461       4.60137809       3.13316556       0.42776001       0.27956307      -0.24416595
Si       9.63642659       5.62867676       3.96526640      -0.35834741       0.05697920       0.21991896
P        2.00557589       1.10808043       0.82478292      -0.47643601       0.24373880      -0.29888921
P        5.69898311      -5.64890012      -2.23691011       0.32078239       0.00870281      -0.18611354
17
Lattice="7.7578319855 0.0 0.0 3.8831629059 6.6670525978 0.0 3.8753118077 2.2227616701 6.3265604503" Properties=species:S:1:pos:R:3:force:R:3 config_type=P_double virial="20.25336893179672 -1.9834448479790232 -2.8902796992830417 -1.9834448479790232 3.3316601341641032 4.290156532661655 -2.8902796992830417 4.290156532661655 18.866587201343567" energy=-9.04890435 pbc="T T T"
Si       0.00598606       0.03153929       0.00902982       3.46032362      -1.28122353       3.21619338
Si       2.01580929       1.06117573       3.18231251       0.19047674      -0.64858261      -0.02585478
Si       3.86719115       2.18561025       3.96257661       4.45426239      -0.28630746      -3.99483369
Si       1.96647015       3.35460604      -0.00257010       0.19000500      -0.36098847       0.29559832
Si       3.94784407       4.31534107       0.78309470       0.25724271       0.10166165       0.10327999
Si       3.88500524       4.44790765       3.21219214       0.31348954       0.21958947      -0.29878174
Si       5.73147448       5.45587594       3.95169278      -0.11268214      -0.20546401      -0.12734068
Si       3.80952379       0.03593204      -0.13380834       0.40281107      -0.32413705       0.01748712
Si       5.74800422       1.11533298       0.87307609      -0.55165381       1.06766077       1.47559598
Si       5.88042572       1.10258713       3.08654712       0.25968825      -0.36410537      -0.24900860
Si       7.72116061       2.13654072       3.95316418      -0.42344574       0.11966235      -0.25895444
Si       5.84162719       3.27087922       0.12556182      -0.10825629       0.06829725       0.10055963
Si       7.81488625       4.58059407       0.80449615      -0.02943840      -0.23570984       0.16060869
Si       7.86152885       4.55883821       3.07182506       0.03611676       0.12729988      -0.00420902
Si       9.68553598       5.53400963       3.97794434       0.07869645      -0.05393059       0.05046877
P        2.02916574       1.00917850       0.90067267      -1.20450695       1.02673328      -1.08199344
P       -1.57425802      -4.17115982       5.10544925      -7.21312917       1.02954426       0.62118450
17
Lattice="7.7970132102 0.0 0.0 3.856402097 6.7441741243 0.0 3.9093906109 2.2251478379 6.3197990578" Properties=species:S:1:pos:R:3:force:R:3 config_type=P_double virial="13.853336131853895 -3.3996932685445804 -2.1937972882271675 -3.3996932685445804 17.747755341347055 0.6728383940652886 -2.1937972882271675 0.6728383940652886 6.520534367232914" energy=-9.259451339999998 pbc="T T T"
Si       0.10690050      -0.03850890       0.02170117      -0.33595892      -0.00329609      -0.37403419
Si       1.98953862       1.02224257       3.19849892       1.73105342      -5.22357877      -0.03312439
Si       3.89166643       2.21761224       3.98391292       0.83341546      -0.17635165       0.43809630
Si       2.00598003       3.45948753       0.03924195      -0.21600383      -0.17085221       0.09244794
Si       3.81939606       4.50358155       0.80739183       0.31836464       0.06910436       0.08522497
Si       3.87281815       4.52375705       3.24939354       0.13254620       0.16367233       0.07932278
Si       5.77663034       5.59111462       3.96820631      -0.31089324       0.27807077      -0.06872869
Si       3.89146650      -0.00866165      -0.03972469      -0.16401387       0.12644842      -0.19137962
Si       5.83495034       1.08692245       0.83500425       0.03792122       0.07241945       0.03283944
Si       5.72957606       1.12017345       3.24626735      -0.05501526      -0.03041540      -0.00971805
Si       7.77237137       2.22933460       3.94280907      -3.26710515      -0.47738175       2.17864151
Si       5.80021149       3.33935958       0.01882488       0.00839069      -0.04163093      -0.04803403
Si       7.89052899       4.59414160       0.81500829      -0.27255110       0.18703935       0.05756052
Si       7.75050384       4.40844688       3.07809663      -1.03065411       0.99002656      -0.26130632
Si       9.56028190       5.63111294       3.98227817      -0.08059557       0.36248548       0.07575104
P        1.95521907       1.15956052       0.82570827       0.58752317      -1.09445728      -0.75144032
P       -2.21078160      -3.79023490       2.97842589       2.08357624       4.96869738      -1.30211889
17
Lattice="7.7009827168 0.0 0.0 3.9249759799 6.6879353147 0.0 3.8614923669 2.2246413696 6.3256579005" Properties=species:S:1:pos:R:3:force:R:3 config_type=P_double virial="23.27701545952345 -0.30873865025409747 0.891947997206389 -0.30873865025409747 7.08878485316723 3.166094998055145 0.891947997206389 3.166094998055145 10.94913132985234" energy=-9.018584790000006 pbc="T T T"
Si       0.02426493       0.05516426       0.08428566      -0.07456499      -0.12714158      -0.33549586
Si       1.84639999       1.10249191       3.13925269       0.27361298      -0.17949766       0.49952318
Si       3.81681250       2.20157624       3.99298612       0.16285662       0.15208499      -0.04435516
Si       2.07229575       3.40449705      -0.01566163       0.66637840      -2.18050137      -1.06575271
Si       3.85378577       4.40032546       0.83632698       3.04202040      -0.59460117      -0.59724686
Si       3.88456137       4.38259152       3.11619487       0.56810364      -0.11601584       0.22196504
Si       5.75247896       5.48794796       3.91801263      -0.30633426      -0.01687401       0.00555025
Si       3.77626435      -0.04403195      -0.03505036       0.32531479      -0.33775572      -0.27188820
Si       5.61923520       1.05193301       0.90906092       0.17063451       0.00524517       0.19079937
Si       5.78398650       1.13301103       3.19867568       0.01279159       0.09855432       0.04928026
Si       7.71136863       2.25562364       3.90414253      -0.24706017       0.20543657      -0.19400849
Si       5.71086959       3.27277004       0.02577409      -0.36027494      -0.18422737      -0.23905104
Si       7.80386029       4.44051225       0.77442979      -3.36131108      -0.30609233      -1.15126634
Si       7.84530674       4.44576600       3.13075712      -0.35481547      -0.24749272       0.46789362
Si       9.72201364       5.51927644       4.04210232       0.15415843       0.08254169       0.33614920
P        1.99414730       1.04701852       0.82831928      -0.76402413       1.19088785      -0.43106707
P        5.73710907      -1.72751204       1.46993488       0.09251367       2.55544917       2.55897079
17
Lattice="7.7950155331 0.0 0.0 3.9099181399 6.7419792168 0.0 3.9081070213 2.2341444265 6.3594633101" Properties=species:S:1:pos:R:3:force:R:3 config_type=P_double virial="17.738188102968707 -7.784625257151648 -5.520446016119624 -7.784625257151648 7.467952778120262 2.352262128741457 -5.520446016119624 2.352262128741457 26.802132928444426" energy=-8.110533539999992 pbc="T T T"
Si      -0.08553647       0.02111003       0.03919160       0.33983409       0.19606671       0.15686055
Si       1.93796728       1.14879243       3.18015053       1.70748737      -1.55302576      -4.33557964
Si       3.85131835       2.24299256       4.08853658       0.32726979       0.13911118      -0.45721934
Si       1.89922062       3.34535728      -0.09480519       0.07091289      -0.10972126       0.03132478
Si       3.94309776       4.52695883       0.69338203       0.09749537      -0.23619427       0.10252776
Si       3.85139015       4.42029260       3.13665781      -0.01804181       0.00396533       0.06040267
Si       5.86762120       5.54902298       3.85578480       0.22325680      -0.46356480      -0.45175481
Si       3.85593149      -0.03087415      -0.10056533      -3.77196236       1.19665988       3.72503626
Si       5.79669484       1.11472590       0.79286150      -0.10236252       0.48927934       0.45830821
Si       5.86154211       1.09038695       3.19765796       0.14331930      -0.05286218       0.04873886
Si       7.82531026       2.32298122       3.92652218      -5.40038503       3.65350629      -4.54920343
Si       5.98061087       3.35426437       0.19625854       0.07347608      -0.00106709       0.10404016
Si       7.89339584       4.61599990       0.77167910      -0.52019579      -0.13041516       0.69964606
Si       7.80909528       4.42572279       3.07086426      -0.07671014      -0.27111848      -0.02074585
Si       9.70299988       5.63060083       3.97073469      -0.05412052      -0.02816030      -0.02819924
P        1.96652388       1.09931994       0.80063785      -0.71755805       0.38786548      -0.43818218
P        1.37997324       6.08462498      -1.31465726       7.67828455      -3.22032491       4.89399919
17
Lattice="7.8277537764 0.0 0.0 3.8674593644 6.6781552659 0.0 3.8827727375 2.2515721258 6.3367746565" Properties=species:S:1:pos:R:3:force:R:3 config_type=P_double virial="6.764704236002428 -2.8854478222948003 -3.4933847975690053 -2.8854478222948003 10.888829185775014 -3.018343070060018 -3.4933847975690053 -3.018343070060018 16.320916743687423" energy=-9.923854180000006 pbc="T T T"
Si      -0.03979514       0.01234840      -0.03920742       0.03688100       0.06945615       0.14001273
Si       1.95601413       1.14522816       3.19305929       0.11641094       0.04741076      -0.44362259
Si       3.89461193       2.31014175       3.95704784       0.11385710       0.05935463      -0.11498561
Si       1.90697100       3.26575511       0.04150877       0.53204745       0.24135813       0.12100121
Si       3.89995826       4.47516048       0.72100367       0.05721377      -0.20301086       0.03230852
Si       3.78388619       4.47183973       3.18154810      -0.10415483      -0.16928691      -0.07944468
Si       5.76806245       5.49809573       3.91946092       0.05489126      -0.36155127      -0.33149710
Si       3.81206018      -0.08834364      -0.05899305      -0.12071942       0.73901086       0.56251561
Si       5.79970663       1.03509584       0.84327431      -0.02926536       0.11583837       0.14560137
Si       5.86134139       1.02964818       3.10591269      -0.19219946       0.03791505      -0.19384228
Si       7.83073343       2.25306785       3.93425515      -0.31609697       0.49867237      -0.45094675
Si       5.99221847       3.37448190       0.10375124      -0.15660065      -0.04375523       0.30141449
Si       7.82803735       4.51009551       0.77435462      -1.30149042      -0.42982747       3.38830410
Si       7.77409283       4.45082774       3.04170351       0.38526035       0.16095676      -0.28172744
Si       9.66427013       5.62747209       4.04978745      -0.02166105      -0.02932697       0.07285147
P        1.93587287       1.11489070       0.77290628      -0.19554848      -0.43969787       0.20118154
P       -3.46444701      -6.40244561       5.10575214       1.14117474      -0.29351647      -3.06912458
17
Lattice="7.7391451749 0.0 0.0 3.9003991822 6.6844331265 0.0 3.9095112069 2.2422771988 6.328602358" Properties=species:S:1:pos:R:3:force:R:3 config_type=P_double virial="5.605441217384071 -5.134794616628774 -1.7284775481980883 -5.134794616628774 18.22687359194457 -4.489903410739324 -1.7284775481980883 -4.489903410739324 16.597248702096508" energy=-8.983270110000007 pbc="T T T"
Si      -0.03920360      -0.00139420      -0.01909870       0.20010911      -0.21738965       0.53490672
Si       1.87987431       1.10195821       3.13229433       0.12557972       0.02798936       0.50613480
Si       3.81998427       2.14859416       4.02832257       0.19735777       0.16117542      -0.06076099
Si       1.97866558       3.39601452      -0.07172342      -0.11665506       3.36616315       1.55901080
Si       3.90300660       4.48518740       0.85360844      -0.12968322      -0.01552139       0.07073343
Si       3.81953604       4.44646916       3.20858849      -0.34110579       0.28700252      -0.36507427
Si       5.83019022       5.59607649       4.05602344      -1.77395574       3.93309735      -2.62882889
Si       3.91061042       0.08495231      -0.02643451       0.68073333      -0.43146690       0.07198553
Si       5.76497899       1.13481071       0.73672055       0.08022842       0.15982828       0.09334089
Si       5.75142395       1.13329302       3.09550642       0.00212179      -0.09740666      -0.08835941
Si       7.78562044       2.27013401       3.77410123       0.07401986      -0.32967466      -0.22151113
Si       5.94868735       3.24217445       0.02695786      -0.09190362       0.05357612       0.00074451
Si       7.80994072       4.51183652       0.77644793      -0.06623729      -0.35884112      -0.08646712
Si       7.70611556       4.51226882       3.10622921       0.51628178       0.20606977      -0.39727027
Si       9.75106130       5.53108287       3.93442512       0.03843366      -0.07254707      -0.01399355
P        2.01484689       1.04605172       0.87122937      -1.35394957      -1.00768857       0.61667855
P       -5.33000120      -2.70169700       5.13038389       1.95862485      -5.66436594       0.40873040
17
Lattice="7.7028943667 0.0 0.0 3.8916359351 6.722109215 0.0 3.8952342059 2.2574141928 6.3544093432" Properties=species:S:1:pos:R:3:force:R:3 config_type=P_double virial="8.24533472820412 -4.951065255417524 -2.356007259540699 -4.951065255417524 12.476870628868053 -2.2178367351003274 -2.356007259540699 -2.2178367351003274 11.301604659282674" energy=-9.744848720000007 pbc="T T T"
Si      -0.08046867      -0.02475799       0.01586181       0.15474766       0.07947180      -0.25199755
Si       1.91487764       1.13236158       3.19917089      -0.04612333      -0.27611969      -0.25734362
Si       3.90162268       2.25493736       4.02239493      -0.30666649       0.10803595      -0.09340150
Si       1.99221134       3.43622492      -0.01540461       0.11357580      -0.31687638       0.11746232
Si       3.97240632       4.55369603       0.75136505       0.21735369      -0.85998371      -1.11546293
Si       3.89266802       4.45641369       3.12896954       1.25818514      -1.84616654       1.02789602
Si       5.78208665       5.61738536       3.95287639       0.33762925      -0.31166575       0.28140151
Si       3.80140093      -0.02527091      -0.04665080       0.51670283      -0.16846890      -0.03666023
Si       5.75939947       1.17167490       0.77117020      -0.47465618       0.72323825      -0.54025055
Si       5.84252181       1.02126553       3.15429965      -0.48045516       0.97501257       0.48418227
Si       7.75272040       2.26430221       3.91089960      -0.18023975       0.52484989       0.10692823
Si       5.75222144       3.32725788       0.05087540      -0.06652346      -0.08683946       0.09860750
Si       7.69000252       4.57984684       0.84359704      -0.02005049      -0.23269486       0.12026230
Si       7.70042788       4.44041072       3.16694125       0.10737503       0.00800888       0.00931011
Si       9.58370964       5.57354518       4.03794711      -1.07444046      -0.14837315       0.91223059
P        1.91851523       1.04373726       0.75754367      -0.00108771       1.13755084      -0.02634746
P       -4.30566439       6.31300493       2.22722801      -0.05532636       0.69102027      -0.83681701
17
Lattice="7.7686070347 0.0 0.0 3.880901152 6.68047363 0.0 3.9133329219 2.2234180309 6.3020546695" Properties=species:S:1:pos:R:3:force:R:3 config_type=P_double virial="8.78573443853172 2.87570714252072 0.11375779389914359 2.87570714252072 16.18587178805868 -1.4366003167642198 0.11375779389914359 -1.4366003167642198 10.413691018194346" energy=-9.290769370000007 pbc="T T T"
Si      -0.06704553      -0.03008472       0.06779559       0.10720467      -0.05332473       0.08256147
Si       1.96599231       1.11358894       3.10298750       0.03446104       0.05125559       0.83815792
Si       3.94194191       2.17619996       4.00313725      -0.15757182       0.13545255      -0.26149484
Si       2.00302512       3.36306944      -0.00478799      -0.14141496      -0.08386176       0.21047835
Si       3.87953990       4.39461823       0.67001491      -0.30688859      -0.40054001       0.23965120
Si       3.88293621       4.48377134       3.09523567       0.00099251       0.05482897      -0.03138612
Si       5.77269226       5.49504267       3.86570281      -0.01193360      -0.10780259      -0.04682163
Si       3.91118116      -0.00494898      -0.08106693       0.94331457       0.78389934       0.23536920
Si       5.71871388       1.08009989       0.66287773      -0.14025162      -0.15003407      -0.24702242
Si       5.84883045       1.10347364       3.25288997       0.04455379       0.09256059      -0.00443757
Si       7.85270022       2.24928785       3.91425589       0.33805264       0.25591000      -0.45561648
Si       5.83589346       3.42403004       0.07076723      -0.75387157      -3.06688143       1.55486257
Si       7.73105447       4.49940782       0.72396523       0.76949539      -0.69222952       0.48664767
Si       7.79822699       4.50927298       3.17844595      -0.05842603       0.01716805       0.02456541
Si       9.78354540       5.56984458       3.99786660      -0.04936135      -0.60788885      -0.47967868
P        1.99035425       1.05613821       0.83749863      -0.34464928       0.97049059      -0.61418731
P        2.20951567      -1.34407808      -0.60571825      -0.27370581       2.80099729      -1.53164875
17
Lattice="7.7555368295 0.0 0.0 3.9177190912 6.7366813374 0.0 3.8952270587 2.2260068168 6.3760270246" Properties=species:S:1:pos:R:3:force:R:3 config_type=P_double virial="6.817555679065311 -2.0099033282472356 -3.377076785907735 -2.0099033282472356 9.22523419375802 -0.04327717210661711 -3.377076785907735 -0.04327717210661711 12.261245013695811" energy=-9.915536379999992 pbc="T T T"
Si      -0.00043662       0.08009612       0.01941176       0.16100091      -0.03324607       0.07215139
Si       1.83628709       1.09288191       3.16810736       0.17238880      -0.06435031       1.21624685
Si       3.78282237       2.24805936       4.05639900      -0.34256691      -0.11553776       0.50510269
Si       1.95730942       3.48241513      -0.04585816       0.09604845      -0.28547483       0.34008239
Si       3.87790026       4.48380667       0.82752731      -1.06156132       0.61368390      -0.32271509
Si       3.87729846       4.46378800       3.19442233      -0.55723371       1.15719059       1.08304066
Si       5.72743178       5.63320788       3.95173897      -0.08726861       0.14213024       0.21549266
Si       3.95679526      -0.00410907      -0.00108788       0.04457576      -0.07931919       0.25191695
Si       5.70437607       1.05054217       0.80553066       0.09777819      -0.47311046      -0.29104939
Si       5.69120195       1.05278571       3.24579254       0.17586201      -0.61445699       0.32587602
Si       7.80681602       2.28372792       3.94277215       0.03853297       0.13029713       0.15111120
Si       5.94888403       3.25405183       0.04337522       1.48692866      -0.10014141      -1.16839866
Si       7.81372071       4.54361430       0.71373383       0.27474834       0.13224632      -0.28323886
Si       7.75390532       4.52502123       3.23826742      -0.02702314       0.05409078      -0.08765477
Si       9.68879869       5.63528755       4.03946088      -0.38480280       0.10263327       0.09562877
P        2.03215027       1.14220395       0.94215591      -0.45881535       0.34017008      -1.85005966
P        1.32926812      -3.60600199       2.13409966       0.37140774      -0.90680527      -0.25353315
17
Lattice="7.7503796771 0.0 0.0 3.8937187094 6.7677207676 0.0 3.9002207073 2.2331574144 6.3153568037" Properties=species:S:1:pos:R:3:force:R:3 config_type=P_double virial="18.703178701350975 -3.0148076254197034 -4.093460250318885 -3.0148076254197034 6.03955575125746 6.568504001510824 -4.093460250318885 6.568504001510824 18.73763602589434" energy=-9.283606390000003 pbc="T T T"
Si       0.02961314      -0.02442402       0.02494931       3.06209834      -1.35830800       1.00290416
Si       1.93312343       1.16240543       3.14654819       0.15769847      -0.34129864      -0.40775467
Si       3.82881008       2.26491188       4.06224156       1.63950971       0.02746971      -1.33807653
Si       2.02164856       3.39675643      -0.03940934       0.10286014      -0.31530459       0.10402140
Si       3.97019016       4.48315113       0.83119523       0.26270586       0.03041004       0.08332709
Si       3.84327685       4.50512938       3.25216209       0.13612675       0.07824365      -0.13855416
Si       5.83370934       5.60705605       3.93052638      -0.05013158      -0.16259334      -0.16992971
Si       3.89335144      -0.00763688      -0.00538420      -0.50750715      -0.43618978       0.39576636
Si       5.71469279       1.19121280       0.77852884      -1.49788090       3.48871839       5.07855098
Si       5.74698970       1.11830556       3.15470135       0.25195981      -0.50124416      -0.17475531
Si       7.80867471       2.24965201       3.88996071      -0.18573499       0.24121053      -0.20189570
Si       5.88304704       3.31099964       0.08785017      -0.14011732       0.29818097       0.33977221
Si       7.87713587       4.61204455       0.80705621      -0.17368414      -0.14701686       0.13978890