65
Lattice="10.8932875034 0.0 0.0 0.0 10.946765536 0.0 0.0 0.0 10.8848415654" Properties=species:S:1:pos:R:3:force:R:3 config_type=P_disordered virial="0.2692111724252939 -2.389759520036574 -0.29083717148891575 -2.389759520036574 -0.9280649174483173 -1.0617283469439878 -0.29083717148891575 -1.0617283469439878 -1.022009421315417" energy=-5.074870680000004 pbc="T T T"
Si       1.88656302       1.81968306       0.22437660      -0.04150142       0.02684788      -0.03343166
Si       0.56756737       3.37392061       1.96813137       0.02910081       0.01062298      -0.00579456
Si       6.21499812       1.81331013       1.71623769      -0.04353530       0.00790837       0.04961438
Si       3.77581962       0.63460088       1.62759859       0.02291517      -0.03413860      -0.33528829
Si       9.47305620       3.25549631       0.44232232      -0.04123986      -0.02253667       0.01762395
Si       8.70473658       0.93504338       0.99714227       0.02046970       0.00402216      -0.01094984
Si       1.42734737       6.43333417       2.73989379       0.03910015      -0.10806285      -0.06263430
Si       3.01041991       4.31935673       2.11797362      -0.01122724       0.09355116      -0.04045880
Si       4.39134548       4.86422928       0.24694909      -0.00428198       0.06877347       0.02987111
Si       4.15866350       6.65980755       3.31281685      -0.00462706       0.14297732      -0.02951263
Si       5.85194505       6.42415073       1.66821375      -0.02782877      -0.02749819      -0.00087138
Si       7.63191628       4.39336711       1.75681136       0.09764126       0.00579681       0.00586198
Si       9.96131070       5.39817009       2.56896151       0.03712642       0.01034378      -0.03103107
Si       8.46887822       7.11376756       1.01692031      -0.01150098      -0.00401393       0.05561761
Si       1.73372708       9.91202287       2.66201895       0.44609912       0.38688138       0.65392136
Si       2.55997483       7.92373822       1.02047127       0.03230094      -0.06204243       0.01077926
Si       4.58581604       9.16626484       2.42642973      -0.11320610       0.11434618       0.36825355
Si       6.90999938       9.90703597       0.67909461      -0.00304929      -0.01911513       0.04138515
Si      10.01972997      10.09861392       2.22143116      -0.11588803      -0.00624869       0.01954883
Si      10.64112781       8.45723907       0.56923028       0.05831986       0.01731717      -0.03915111
Si       7.89920815       8.72904841       2.68932381       0.09769287      -0.07619287      -0.11077281
Si       1.61837173       2.94934433       4.19050990       0.05410471       0.03599613      -0.00295659
Si       5.24227556       1.46172301       5.99849785       0.00905701      -0.19867520       0.22959598
Si       6.61049306       0.42599002       3.96431620       0.16901342      -0.02813558      -0.01555327
Si       3.92536181       2.02872311       3.82700681      -0.48845772      -0.63159524       0.10692812
Si       7.58938321       3.07229154       4.23682185       0.10942205       0.04598466      -0.07689851
Si       9.13932955       0.72776666       4.11461386      -0.00955092       0.01628900      -0.00672190
Si      10.66393776       2.09915344       5.67217720       0.01186808      -0.00553223      -0.01215488
Si       8.35381809       3.38764036       6.61289051      -0.01686435      -0.01778363       0.05658038
Si       0.10689220       4.65773574       6.43444200       0.03907997      -0.00914397       0.01053659
Si       2.08644040       5.41573807       5.16753470      -0.01861992       0.01045716       0.00694294
Si       5.50097263       3.93409966       3.78308573       0.01336296      -0.05150607      -0.07631205
Si       4.55165546       5.48179664       5.57575179       0.01975444      -0.03912733       0.01140730
Si       4.69813849       3.63249921       7.17760474      -0.06248345       0.06237025       0.05390796
Si       9.10324296       5.53071133       4.91027152      -0.04643850      -0.00137608      -0.01935126
Si       0.78300720       8.19803846       4.30060576      -0.09072417      -0.16989113      -0.04350156
Si       1.89147419       8.10910749       6.38666192       0.04497778       0.11245671      -0.08927815
Si      -0.06852307       9.87879835       7.17554366      -0.00617824       0.02884166       0.01565048
Si       4.49234928       8.06077171       6.38616253      -0.02207508       0.01612101      -0.06444744
Si       5.91816775       8.81089165       4.39098075      -0.06457903       0.16079520       0.02545987
Si       9.21331539       8.04397957       4.72579697      -0.02842490      -0.01337328       0.01746909
Si       8.91650387       9.93091694       5.90949570      -0.00849023      -0.01184915       0.01368935
Si       3.37700578       2.15866759       9.21348120       0.01334941      -0.01387008       0.01346715
Si       0.46741210       1.69626183       7.89010911      -0.00937573      -0.01362030      -0.00162644
Si       2.36341067       0.16101443       8.06194848       0.01363876       0.02903007      -0.20442709
Si       0.58032634       3.58118240       9.62858263       0.01986910      -0.00505750      -0.00814295
Si       5.22561990       2.73155169      10.58158094      -0.00393142       0.00514424      -0.00676010
Si       6.76001688       2.83153385       8.40749825       0.01340016      -0.02433320      -0.01862483
Si      10.39130859       0.10326650       9.64382442      -0.01015382       0.00587077       0.02705102
Si       7.65203231       0.60920401       9.36184308      -0.04355991       0.00580554       0.01821825
Si       2.88642451       6.14095266       9.75364169      -0.00599036      -0.01694162      -0.00249320
Si       2.40156747       4.48726265       8.16367848      -0.00357594       0.04284463      -0.00872213
Si       6.97141498       4.88394250      10.00552483      -0.02674652       0.00171722      -0.01596470
Si       4.97889074       6.32374569       8.47748230       0.00252834      -0.06689625       0.04337088
Si      10.14574151       5.60981841       8.44889369      -0.00162921       0.00157875       0.00769305
Si       7.80377511       5.73404798       7.83879129      -0.00997249      -0.02426882      -0.01803271
Si       1.76154662       8.06183804       8.79828869       0.00423856       0.05028153       0.01813858
Si       1.78286795      10.17319333      10.40534237      -0.02292090       0.02463179      -0.04724759
Si       5.25043789       7.99017005      10.75386165      -0.01422092      -0.03212507      -0.06289448
Si       4.84764232      10.24767891       7.46031474      -0.09020792       0.04202671       0.06076970
Si       4.42813907      10.30828808      10.25336056       0.01603986       0.04380876      -0.02561812
Si       7.14159676       9.80614956       7.82449657       0.05377882       0.01287431      -0.03544392
Si       7.46850280       7.94290520       9.38104556      -0.01557634      -0.03262372       0.03799376
Si      10.01423157       8.20327909       9.11234236       0.02999624       0.03314259       0.03497820
P       -7.48374515      10.68597237       4.76013119       0.02038800       0.09011749      -0.49925546
65
Lattice="11.0146741622 0.0 0.0 0.0 11.0079020231 0.0 0.0 0.0 10.9844996524" Properties=species:S:1:pos:R:3:force:R:3 config_type=P_disordered virial="3.9408221817962072 3.3288511195555444 0.137892850372062 3.3288511195555444 5.841827483484224 0.5176205097313777 0.137892850372062 0.5176205097313777 3.4625436736409227" energy=-4.90196665000002 pbc="T T T"
Si       2.20751825       0.19552425       2.68171193       0.06751523      -0.04206219      -0.00515770
Si       4.91176999       2.73799371       1.19738154       0.04769316      -0.05982176       0.02729246
Si       6.60637489       1.85984596       3.24928167      -0.23266359       0.14487550      -0.42917256
Si       4.21055468       0.43245746       0.99660163      -0.03797565      -0.02128173       0.04501333
Si       9.10704345       1.04951028       3.30990213       0.21818602       0.00560562      -0.12069617
Si      10.63981677       1.81991020       1.37299417       0.10697520       0.08430960      -0.07429532
Si       8.55614593       2.64893161       0.17468030       0.02798002       0.01072710      -0.01590235
Si       1.75455143       6.06041839       2.32796268      -0.03552295      -0.01217936       0.03870336
Si       3.51521478       4.15084109       2.99945109       0.00871180       0.01939233       0.01639888
Si       2.93600614       4.25687792       0.65551070       0.04671333      -0.00603795      -0.03761929
Si       6.03298621       4.63632801       3.29271935      -0.03025685      -0.03150696       0.01284870
Si      10.65566281       4.43381416       2.11821722       0.00778278      -0.07938148      -0.05491417
Si       7.64711491       4.78168299       1.18569245      -0.00226962       0.06103967      -0.00829332
Si       9.44981915       6.54883031       3.40060686       0.01302358       0.05759243      -0.01960668
Si      10.49765759       5.76036223      10.98375919      -0.00520457       0.00154503       0.03012538
Si       3.03808896       8.85971089       0.29498850       0.02888697      -0.05297890       0.02678664
Si       0.66656621      10.21828205       0.99503653      -0.03105245       0.04293532      -0.01545350
Si       0.04223316       7.90089324       1.58507101      -0.02187903      -0.06827810       0.00692431
Si       7.02846183       7.35627258       2.04055149      -0.05615798      -0.01733829      -0.10092439
Si       6.54119883      11.00380482       1.62255523      -0.03763968      -0.05424492      -0.08808495
Si       3.79652231       7.37807692       2.55961991       0.05269345       0.04570698       0.00710383
Si       5.44098069       7.59333493       0.08191566      -0.02010607       0.02962192       0.01133578
Si       8.52629222       9.31303976       1.86330884      -0.06689504      -0.02655051      -0.02315406
Si       0.32929149       3.68281966       4.74897909       0.06638181      -0.09144308       0.00011763
Si       0.30223794       1.07677090       4.33611778       0.15418224       0.04604657      -0.05905115
Si       2.74509551       2.44019395       4.47187048      -0.00576664      -0.01853782       0.02234561
Si       4.65808105       0.81113908       4.96509657      -0.09703399       0.09318739      -0.08603973
Si       7.17645099       0.07112519       5.38208059      -2.23093083      -2.46564187       0.46815261
Si       1.12659240       6.38186095       4.93041265       0.02184205       0.02926314       0.04725406
Si       3.48852812       6.91711543       5.84819004      -0.00566523      -0.00925145       0.00137243
Si       5.71706195       6.86721911       4.68645911       0.00616068      -0.04915732       0.01228944
Si       5.20710342       3.67197996       5.89141098      -0.00294792       0.02375578       0.05894621
Si       8.56071164       6.80607538       6.36841681       0.03026385       0.18648749       0.01977556
Si       8.19259412       3.93217597       6.57390697       0.00061632      -0.10307005      -0.24496759
Si      10.64116191       5.13340867       6.76960502      -0.01521457       0.04036222       0.04723448
Si       8.58931050       3.88149967       4.02604784      -0.02262677       0.11698930      -0.12983042
Si       0.90892374       8.72728856       4.18000112       0.02818740      -0.04521099      -0.02167804
Si       0.15818299      10.42345081       6.22503570      -0.04587977      -0.01269077       0.03686378
Si       2.70487623       9.61702090       6.51217582      -0.01350897       0.01203570       0.02499278
Si       3.50170121       9.55702479       4.00073355       0.01542110       0.05813393       0.05970904
Si       6.19449857       9.25656254       4.02064193       0.03368043      -0.11573717      -0.27243800
Si       9.10433198       8.91528647       4.39513714       0.00166934      -0.02157575      -0.01922104
Si       1.16535411       2.63056556      10.60604189      -0.01157286       0.03366301      -0.06119179
Si       1.29679456       0.21487541       9.88159455       0.01261429       0.02798904       0.00405612
Si       3.76832962       0.98954473       7.31564298      -0.02402316       0.02460124       0.02380704
Si       6.01931594       1.98912539       7.62234286      -0.17752917       0.00345850       0.11691385
Si       3.77935628      10.89888853       9.57937415      -0.01731320       0.01094260      -0.04169584
Si       6.01807387       3.19362581       9.86069074       0.00329813       0.01032568      -0.01443795
Si       9.57555378       3.13660145       8.94271474       0.09301681       0.03861005       0.26633567
Si       7.44681540       0.76783418      10.34182022      -0.00751403      -0.04948041      -0.03237760
Si       9.94226766       0.57546041       8.56597331      -0.03501266       0.08205175      -0.09115036
Si       0.49392691       4.51485168       9.24655020      -0.01727142       0.00884345      -0.02270128
Si       6.34691259       6.91067384       7.33925721       0.07554331      -0.03505345      -0.02795349
Si       4.42396701       5.22911877       7.70449233      -0.01973220      -0.03583513      -0.00541784
Si       4.45964662       5.55902919      10.19036169       0.00319489       0.01040820      -0.00704162
Si       7.95048484       6.58336794      10.22759464       0.03502758      -0.01492562       0.05849602
Si       7.41746414       4.80975083       8.72698179      -0.01144424      -0.03588613       0.12752513
Si       3.33845546       7.69438946       8.37672700      -0.00455307       0.00675892      -0.01687898
Si       1.27054557       7.66811313       9.97492782      -0.01158477      -0.00852838       0.00592640
Si       7.19917466      10.70839227       7.80480308      -0.07847801      -0.21639201       0.19856968
Si       5.50317725       8.92442956       8.83288588       0.06020772       0.01666296       0.04172078
Si       9.41133766      10.17752413      10.69954287      -0.01654438      -0.00501165      -0.01100909
Si       9.33999804       9.17231089       7.33007826      -0.06408159      -0.07024810      -0.00861354
Si       9.77020140       8.12561881       9.51308849       0.00500656       0.02621996      -0.01321360
P       -2.60049224       1.66781306       5.62429604       2.24137689       2.46519089       0.31524647
65
Lattice="11.0580315118 0.0 0.0 0.0 11.0228744458 0.0 0.0 0.0 10.9689690222" Properties=species:S:1:pos:R:3:force:R:3 config_type=P_disordered virial="6.084806832171751 -1.2187986307883363 3.274982714546031 -1.2187986307883363 7.384032746383937 0.6518961291654164 3.274982714546031 0.6518961291654164 5.2773615331668395" energy=-5.23040536000002 pbc="T T T"
Si       2.08513338       2.78890491       2.19567434       0.03105166       0.00854299      -0.00539580
Si       1.63639877       0.98144320       0.47206834      -0.00384597      -0.07620501       0.02887543
Si       3.65208825       0.63865030       2.77623018      -0.00709056       0.02654940      -0.03242645
Si       5.34329425       2.76357215       2.36455411      -0.09569657      -0.00752937      -0.21236234
Si       5.21692870       1.21529389       0.37911981      -0.05544077      -0.02425521       0.02819085
Si       9.16513719       1.18520650       1.65177992      -0.02290240      -0.01192153       0.00882809
Si       7.75960261       3.22236230       1.66753735       0.02951974       0.01802703       0.11015691
Si      10.65394835       2.51439116       3.56837761       0.00543382      -0.04653774       0.03122711
Si       1.98040080       5.07578612       3.20945183       0.02998005       0.03567301      -0.00271103
Si       0.99488527       7.18739786       2.20767555       0.01509261       0.03297140       0.03483388
Si       0.42012151       5.71408547       0.33609315      -0.05621920      -0.05777041      -0.11172704
Si       4.53844531       4.78955713       1.11138208      -0.01001695      -0.01844401       0.02447589
Si       6.59198934       6.63842295       2.62075774       0.00607388      -0.02226090       0.07094458
Si       4.69188686       5.51290011       3.61664178      -0.10732454       0.00788510      -0.01348656
Si       8.99861476       5.42920975       2.23949378       0.03282114       0.09548137      -0.10087262
Si       2.01776258       9.39732452       1.32785775       0.00370923      -0.01205886       0.03664738
Si       4.53310115       9.16218409       2.00464582      -0.03788111       0.04628970       0.00133405
Si       5.90791306       8.33948916       0.01643450       0.02270829       0.01060927      -0.04039446
Si       7.01666445      10.66889439       0.77770612       0.00012281       0.00791951      -0.00836891
Si      11.00950250      10.36063555       2.45450678       0.00600808       0.04322587       0.01702094
Si       7.82365564       9.98994354       3.19679738      -0.00855285       0.02464080       0.03424945
Si       8.47138138       8.13508248       0.86145962       0.03123941      -0.01423730       0.03013579
Si       9.88245519       7.82913664       3.18149639      -0.01874698      -0.00250901      -0.00935472
Si       0.46710310       1.25417242       5.68368270       0.02670952       0.00172256      -0.01984014
Si       6.63850322       2.46346863       5.35635042      -0.07973526       0.04626944      -0.02667893
Si       5.41634452       0.16037881       4.63135718      -0.04503284      -0.11537407       0.04861781
Si       7.52367974       0.12919240       6.17367230       0.11237686      -0.45735831      -0.03723340
Si       0.97429124       4.32756751       5.29823202      -0.01663468       0.00780237       0.02638919
Si       1.91845949       6.85151998       6.00812789      -0.02168213      -0.02961188      -0.01514116
Si       5.50899681       4.68424962       5.94499542      -0.56066716       0.46611972      -0.66104710
Si       7.01474849       7.25891069       6.89307185      -0.06930157      -0.14177875      -0.11942798
Si       8.39430731       3.82419239       4.50998471       0.00783723       0.02982352       0.05888990
Si      10.03353022       5.58387529       6.25281368       0.03201032       0.09928185      -0.09512902
Si       7.90686276       6.44732011       4.92293368      -0.02258416       0.00967717      -0.02253530
Si       3.17345136       7.66294818       3.74173982      -0.03169889      -0.00402333      -0.00867749
Si       3.73284310      10.14941784       6.14471316      -0.01611759      -0.00759487      -0.00461995
Si       1.86269335      10.83157784       4.28748375      -0.02263434      -0.00386592       0.04788128
Si       1.37459541       9.45053519       6.99825190      -0.00833396       0.00915273      -0.02766450
Si       6.02855761       8.68871775       4.31920269       0.04096197      -0.04059063      -0.03543897
Si       4.52557151       7.54026682       6.44793328       0.03199070      -0.06357939      -0.00797224
Si       9.58527121      10.56219974       5.03779779       0.05447664       0.01419949      -0.01156399
Si      10.42963195       8.28542879       5.67671471       0.04022089      -0.01356859      -0.00206707
Si       1.84074673       2.93887787       7.30871828       0.00141552       0.00129134       0.04447566
Si       3.33182439       0.55838817       9.83972212       0.03004162       0.01831487      -0.01009983
Si       0.82066576       2.99035222       9.41985170      -0.02292573       0.05552249      -0.01223759
Si       3.86340509       1.63122507       7.80188005      -0.05441634      -0.03294249      -0.00453074
Si       7.07681404       2.75068001      10.28290118       0.03075545      -0.00050395       0.43474395
Si       4.76157089       3.62088231       9.31133480      -0.15883162      -0.07711400       0.04604144
Si       5.84808675       0.00691610       8.05095086       0.02608417       0.00331405       0.02350063
Si      10.41937602       0.18496164       7.68231692      -0.06473898       0.06301725       0.02219905
Si       8.90710132       2.33211793       8.65566373       0.30159745      -0.10265854       0.23050958
Si      10.39400563       0.89859863      10.46674359       0.37543988      -0.19579804       0.13989284
Si       2.32236504       4.05828401       0.08288357       0.04696514       0.00013253       0.01139363
Si       3.45982246       4.87928269       7.16203062      -0.00623481      -0.01764201      -0.03422254
Si       6.43123235       5.73207106      10.69906500       0.08756348      -0.16655892       0.02561345
Si       7.19650002       5.21369612       8.22335077      -0.19378585       3.09897694       1.26658261
Si       9.77319828       4.69107998       8.46820810       0.62932121       0.05761240       0.41724514
Si       9.11638630       6.04323926      10.47801615      -0.03759303      -0.00819019       0.08349951
Si       2.48011030       9.24251684       9.57000530      -0.00252775      -0.02509344      -0.01185826
Si       4.85390457       8.86180636       8.77752248      -0.01157620      -0.00140503       0.00470662
Si      10.68339161       8.42224549       8.94972859       0.03095253      -0.00274259      -0.01832608
Si      10.17497825       9.61251797      10.94047566       0.02413742       0.03410712      -0.02873498
Si       7.76488385      10.93388896       9.36189147      -0.01238397       0.01333941      -0.01600375
Si       8.57589069       9.05262681       7.60126751      -0.00273897       0.03243164       0.00955058
P       -3.72423763       3.34333527      -3.57214991      -0.25872500      -2.61820002      -1.63050222
65
Lattice="10.9005363771 0.0 0.0 0.0 10.9681872854 0.0 0.0 0.0 10.9249688975" Properties=species:S:1:pos:R:3:force:R:3 config_type=P_disordered virial="13.527860654427933 0.0936270842225464 4.992290166622811 0.0936270842225464 17.445053240077876 1.7530776019992929 4.992290166622811 1.7530776019992929 9.70563591036283" energy=-2.9452439600000275 pbc="T T T"
Si       3.34160386       1.86229306       3.72787229      -0.02788052      -0.01485003       0.01335443
Si       1.25598877       2.44020683       1.16869026       0.04257446       0.01291700       0.00671858
Si       3.83131946       1.29366781       1.31609727      -0.00396004      -0.01993647       0.02991081
Si       5.57503989       3.70948606       1.20032558       0.01962316      -0.01309364       0.04389102
Si       6.02883853       2.14659792       3.08736308      -0.01849215      -0.04372034       0.00876037
Si       8.35698596       3.10456927       2.03604673      -0.08444955       0.03927948       0.04580393
Si       9.75119156       0.93252801       1.15136742       0.06831462      -0.12856063       0.00051264
Si       1.97545085       5.63876899       1.34171913       0.01909217      -0.05733046       0.01117501
Si       5.69438889       6.25403560       2.03549994      -0.02130802      -0.02289868       0.15206684
Si       4.10796534       6.46997151       0.18003314      -0.04342690       0.01219400      -0.02193291
Si       8.18028027       6.57761174       2.16905010       0.10316439      -0.56054203       0.39652934
Si       8.93281316       4.13844097      10.80268410       0.05706315      -0.10715447      -0.08078075
Si       9.39228159       5.05254511       3.44850906       0.06446058      -0.03146994       0.17531561
Si       1.95026843       9.71628718       1.71256146      -0.11098117       0.05732565       0.01905053
Si       0.97698785       7.82110290       0.62634847       0.26568132      -0.05729676      -0.09559795
Si       5.67359214      10.38902257       2.03777621      -0.20063850       0.25636128       0.03437665
Si       4.08242761       8.96902264       0.82767630      -0.02513243      -0.04752093      -0.06133704
Si       8.54022128       9.25304696       2.92406734       0.42575605       0.26059264       0.59019074
Si       7.63905122      10.35842985       0.49450592      -0.03409183       5.72493247       0.88511978
Si       9.47943288       8.30598420       0.60218796       5.35812498      -0.07399107       0.87415108
Si       1.00262040       2.58042546       3.76428584       0.02231569       0.03697453       0.02603574
Si       0.19641120       0.50027541       5.62245738      -0.02055564      -0.02200796       0.05259629
Si       9.45384812       1.21543540       3.92297750       0.01992387      -0.05666092      -0.04373985
Si       7.24420974       0.96716998       6.53791753       0.02398713       0.03624649      -0.05030212
Si       8.16063191       3.17801968       5.09195934       0.01310529       0.00312410       0.00592069
Si       7.27438126       0.20054121       4.26736312      -0.00229192      -0.03160730       0.00699749
Si       2.37180556       6.23479656       3.85437470      -0.02241592       0.01629852       0.01577151
Si       1.26805014       4.46620588       5.25823902      -0.03625595      -0.05725819      -0.05870079
Si       3.38853958       3.64414430       6.23443358      -0.03438006       0.02358499       0.01847252
Si       4.59995927       6.03247544       4.40706234      -0.04757897      -0.02819125       0.07682193
Si       5.42473731       3.82900314       4.83123405       0.03642625      -0.02043217       0.00507138
Si       6.97371439       4.94636421       6.88717908       0.02877348       0.00896530      -0.00581245
Si       5.72807076       7.08270461       6.83241984      -0.04641901      -0.16000196      -0.07636660
Si      10.56147543       6.61272017       5.04354116       0.01635047      -0.02767798       0.01202229
Si      10.04066032       3.92886364       6.53456188       0.01037224       0.00816880       0.01089299
Si       9.12603662       6.14310699       6.95769567       0.01482286      -0.00256461       0.00292135
Si       2.53167422      -0.01364066       5.04444994       0.01688070       0.04636170       0.03542611
Si       1.51184517       8.68927531       4.01921818      -0.01161932      -0.00857310       0.04039470
Si       3.81745099       8.54256264       5.64038590      -0.07595872       0.04673892      -0.06191708
Si       6.23084579       8.41749248       4.01137767       0.06944385       0.05539562      -0.02340906
Si      10.00826197       9.20731803       4.91236341      -0.06695966       0.07967763       0.01848363
Si       7.84103983       8.05825879       5.98402381      -0.00646175      -0.02117066      -0.02273964
Si       3.05807164       1.43032993       7.37566561      -0.04468598      -0.01947046       0.00413912
Si       1.13597400       0.21061758       0.04451351       0.07598861      -0.00873899      -0.01985397
Si       0.89967059       0.40670052       8.06223541       0.03216854       0.06140501      -0.03574420
Si       4.41192127       1.36724899       9.44156556       0.01784220       0.00588598      -0.06148948
Si       5.74193178       2.58135634       7.53702217      -0.01174881      -0.01586395       0.05665988
Si      10.81008664       2.79699407       8.59139256      -0.04510732      -0.02713316       0.04031883
Si       8.36447213       1.70578067       9.99018534       0.08297346       0.08903815      -0.13515789
Si       9.11882321       0.71531082       7.88039543      -0.00653745       0.07107585      -0.01574027
Si       3.46578100       3.90556238      10.77557911       0.01753015       0.00234625      -0.00203247
Si       0.40599745       4.26056249      10.83168641      -0.02587740       0.01452633      -0.00332932
Si       1.25864380       5.94306656       7.85128467       0.00906835      -0.01902288       0.01695423
Si       2.20733537       3.80826536       8.52325747      -0.01618385      -0.00604720      -0.00625992
Si       5.89177628       6.50768473       9.42757826      -0.29093322      -0.48662805      -0.49918990
Si       6.46716898       3.89127696       9.59543450      -0.06025468       0.11365288      -0.03234232
Si       8.11712041       6.35582173      10.41163715       0.10233927      -1.76560660      -0.75996854
Si      10.23475516       6.75230568       8.93022781      -0.14799328       0.12913140       0.02010366
Si      10.76673891       9.28376528       9.08512391      -0.08913296      -0.05106247       0.03509806
Si       2.88168647       9.50558638       7.88859671       0.08318368      -0.04806372      -0.01573710
Si       2.25236639       7.69085763       9.45797268       0.00411507       0.01510333      -0.03128816
Si       6.75393278       8.78690989       9.40418708      -1.12533011       0.05926774      -2.97297122
Si       4.50946289       9.79900721       9.50391636       0.00172548       0.00138445       0.14000075
Si       8.54048198       9.48635861       8.01264161       0.09219379       0.03405315       0.06744934
P        7.47420697      -2.60683446       0.42200949      -4.41034225      -3.25986068       1.19826118
65
Lattice="11.0069419801 0.0 0.0 0.0 10.8920658576 0.0 0.0 0.0 10.930347638" Properties=species:S:1:pos:R:3:force:R:3 config_type=P_disordered virial="3.239099621193972 -1.1474007224882432 -1.97074156004348 -1.1474007224882432 1.4375074928976161 -0.30536651344162946 -1.97074156004348 -0.30536651344162946 5.661955377310136" energy=-4.472041009999998 pbc="T T T"
Si       1.93487617       1.29571341       1.66550705       0.33440700      -0.16833074      -0.27485503
Si       5.07093896       0.92886046       1.03933686      -0.09508428      -0.00253125       0.03548075
Si      10.69866734       2.14539516       2.19097684      -0.14096088      -0.00270147       0.71384806
Si       7.45983750       0.40873616       2.04640992      -0.04796462       0.08161182      -0.03432671
Si       0.25004095       5.57020693       0.23166662       0.02214572       0.03397627      -0.02342696
Si       0.58034377       4.27179180       2.69461747       0.06604708       0.04918618      -0.01028584
Si       3.30564423       5.30970521       3.07002933       0.00936103       0.00912260      -0.00152883
Si       2.72432353       5.35006478       0.59631410       0.02641625      -0.01635661      -0.02791216