2
Lattice="10.0 0.0 0.0 0.0 5.0 0.0 0.0 0.0 5.0" Properties=species:S:1:pos:R:3:force:R:3 config_type=P_Si_dimer energy=113.9835808452405 pbc="T T T"
Si       0.00000000       0.00000000       0.00000000    -490.31554497       0.00000000       0.00000000
P        0.81578947       0.00000000       0.00000000     490.31554497      -0.00000000      -0.00000000
2
Lattice="10.0 0.0 0.0 0.0 5.0 0.0 0.0 0.0 5.0" Properties=species:S:1:pos:R:3:force:R:3 config_type=P_Si_dimer energy=91.28277679639105 pbc="T T T"
Si       0.00000000       0.00000000       0.00000000    -378.76597449       0.00000000       0.00000000
P        0.86842105       0.00000000       0.00000000     378.76597449      -0.00000000      -0.00000000
2
Lattice="10.0 0.0 0.0 0.0 5.0 0.0 0.0 0.0 5.0" Properties=species:S:1:pos:R:3:force:R:3 config_type=P_Si_dimer energy=73.56498678748602 pbc="T T T"
Si       0.00000000       0.00000000       0.00000000    -298.98768035       0.00000000       0.00000000
P        0.92105263       0.00000000       0.00000000     298.98768035      -0.00000000      -0.00000000
2
Lattice="10.0 0.0 0.0 0.0 5.0 0.0 0.0 0.0 5.0" Properties=species:S:1:pos:R:3:force:R:3 config_type=P_Si_dimer energy=59.42337341465042 pbc="T T T"
Si       0.00000000       0.00000000       0.00000000    -241.57869184       0.00000000       0.00000000
P        0.97368421       0.00000000       0.00000000     241.57869184      -0.00000000      -0.00000000
2
Lattice="10.0 0.0 0.0 0.0 5.0 0.0 0.0 0.0 5.0" Properties=species:S:1:pos:R:3:force:R:3 config_type=P_Si_dimer energy=47.855050696062314 pbc="T T T"
Si       0.00000000       0.00000000       0.00000000    -200.05035706       0.00000000       0.00000000
P        1.02631579       0.00000000       0.00000000     200.05035706      -0.00000000      -0.00000000
2
Lattice="10.0 0.0 0.0 0.0 5.0 0.0 0.0 0.0 5.0" Properties=species:S:1:pos:R:3:force:R:3 config_type=P_Si_dimer energy=38.210255055284385 pbc="T T T"
Si       0.00000000       0.00000000       0.00000000    -167.84635276       0.00000000       0.00000000
P        1.07894737       0.00000000       0.00000000     167.84635276      -0.00000000      -0.00000000
2
Lattice="10.0 0.0 0.0 0.0 5.0 0.0 0.0 0.0 5.0" Properties=species:S:1:pos:R:3:force:R:3 config_type=P_Si_dimer energy=30.050600101784593 pbc="T T T"
Si       0.00000000       0.00000000       0.00000000    -143.02370837       0.00000000       0.00000000
P        1.13157895       0.00000000       0.00000000     143.02370837      -0.00000000      -0.00000000
2
Lattice="10.0 0.0 0.0 0.0 5.0 0.0 0.0 0.0 5.0" Properties=species:S:1:pos:R:3:force:R:3 config_type=P_Si_dimer energy=23.10132008566562 pbc="T T T"
Si       0.00000000       0.00000000       0.00000000    -121.53090374       0.00000000       0.00000000
P        1.18421052       0.00000000       0.00000000     121.53090374      -0.00000000      -0.00000000
2
Lattice="10.0 0.0 0.0 0.0 5.0 0.0 0.0 0.0 5.0" Properties=species:S:1:pos:R:3:force:R:3 config_type=P_Si_dimer energy=17.20998461911337 pbc="T T T"
Si       0.00000000       0.00000000       0.00000000    -102.69824893       0.00000000       0.00000000
P        1.23684210       0.00000000       0.00000000     102.69824893      -0.00000000      -0.00000000
2
Lattice="10.0 0.0 0.0 0.0 5.0 0.0 0.0 0.0 5.0" Properties=species:S:1:pos:R:3:force:R:3 config_type=P_Si_dimer energy=12.256610669431293 pbc="T T T"
Si       0.00000000       0.00000000       0.00000000     -85.85432238       0.00000000       0.00000000
P        1.28947368       0.00000000       0.00000000      85.85432238      -0.00000000      -0.00000000
2
Lattice="10.0 0.0 0.0 0.0 5.0 0.0 0.0 0.0 5.0" Properties=species:S:1:pos:R:3:force:R:3 config_type=P_Si_dimer energy=8.138241620910266 pbc="T T T"
Si       0.00000000       0.00000000       0.00000000     -70.97811980       0.00000000       0.00000000
P        1.34210526       0.00000000       0.00000000      70.97811980      -0.00000000      -0.00000000
2
Lattice="10.0 0.0 0.0 0.0 5.0 0.0 0.0 0.0 5.0" Properties=species:S:1:pos:R:3:force:R:3 config_type=P_Si_dimer energy=4.749909428302701 pbc="T T T"
Si       0.00000000       0.00000000       0.00000000     -58.11408933       0.00000000       0.00000000
P        1.39473684       0.00000000       0.00000000      58.11408933      -0.00000000      -0.00000000
2
Lattice="10.0 0.0 0.0 0.0 5.0 0.0 0.0 0.0 5.0" Properties=species:S:1:pos:R:3:force:R:3 config_type=P_Si_dimer energy=1.9905069726674618 pbc="T T T"
Si       0.00000000       0.00000000       0.00000000     -46.95559796       0.00000000       0.00000000
P        1.44736842       0.00000000       0.00000000      46.95559796      -0.00000000      -0.00000000
2
Lattice="10.0 0.0 0.0 0.0 5.0 0.0 0.0 0.0 5.0" Properties=species:S:1:pos:R:3:force:R:3 config_type=P_Si_dimer energy=-0.21477556000000014 pbc="T T T"
Si       0.00000000       0.00000000       0.00000000     -37.05398363       0.00000000       0.00000000
P        1.50000000       0.00000000       0.00000000      37.05398363      -0.00000000      -0.00000000
2
Lattice="30.0 0.0 0.0 0.0 30.0 0.0 0.0 0.0 30.0" Properties=species:S:1:pos:R:3:force:R:3 config_type=P_Si_dimer energy=-4.60151252 pbc="T T T"
Si       0.00000000       0.00000000       0.00000000     -14.61502364       0.00000000       0.00000000
P        1.68965517       0.00000000       0.00000000      14.61502364       0.00000000      -0.00000000
2
Lattice="30.0 0.0 0.0 0.0 30.0 0.0 0.0 0.0 30.0" Properties=species:S:1:pos:R:3:force:R:3 config_type=P_Si_dimer energy=-5.94721884 pbc="T T T"
Si       0.00000000       0.00000000       0.00000000      -5.69484663       0.00000000       0.00000000
P        1.82758621       0.00000000       0.00000000       5.69484663      -0.00000000       0.00000000
2
Lattice="30.0 0.0 0.0 0.0 30.0 0.0 0.0 0.0 30.0" Properties=species:S:1:pos:R:3:force:R:3 config_type=P_Si_dimer energy=-6.39859723 pbc="T T T"
Si       0.00000000       0.00000000       0.00000000      -1.51963507       0.00000000       0.00000000
P        1.96551724       0.00000000       0.00000000       1.51963507      -0.00000000      -0.00000000
2
Lattice="30.0 0.0 0.0 0.0 30.0 0.0 0.0 0.0 30.0" Properties=species:S:1:pos:R:3:force:R:3 config_type=P_Si_dimer energy=-6.44994847 pbc="T T T"
Si       0.00000000       0.00000000       0.00000000       0.57292526       0.00000000       0.00000000
P        2.10344828       0.00000000       0.00000000      -0.57292526      -0.00000000      -0.00000000
2
Lattice="30.0 0.0 0.0 0.0 30.0 0.0 0.0 0.0 30.0" Properties=species:S:1:pos:R:3:force:R:3 config_type=P_Si_dimer energy=-6.26604279 pbc="T T T"
Si       0.00000000       0.00000000       0.00000000       2.11660654       0.00000000       0.00000000
P        2.24137931       0.00000000       0.00000000      -2.11660654      -0.00000000       0.00000000
2
Lattice="30.0 0.0 0.0 0.0 30.0 0.0 0.0 0.0 30.0" Properties=species:S:1:pos:R:3:force:R:3 config_type=P_Si_dimer energy=-5.89606717 pbc="T T T"
Si       0.00000000       0.00000000       0.00000000       3.12818983       0.00000000       0.00000000
P        2.37931034       0.00000000       0.00000000      -3.12818983      -0.00000000       0.00000000
2
Lattice="30.0 0.0 0.0 0.0 30.0 0.0 0.0 0.0 30.0" Properties=species:S:1:pos:R:3:force:R:3 config_type=P_Si_dimer energy=-5.42866626 pbc="T T T"
Si       0.00000000       0.00000000       0.00000000       3.57688129       0.00000000       0.00000000
P        2.51724138       0.00000000       0.00000000      -3.57688129       0.00000000      -0.00000000
2
Lattice="30.0 0.0 0.0 0.0 30.0 0.0 0.0 0.0 30.0" Properties=species:S:1:pos:R:3:force:R:3 config_type=P_Si_dimer energy=-4.92466045 pbc="T T T"
Si       0.00000000       0.00000000       0.00000000       3.68835615       0.00000000       0.00000000
P        2.65517241       0.00000000       0.00000000      -3.68835615       0.00000000       0.00000000
2
Lattice="30.0 0.0 0.0 0.0 30.0 0.0 0.0 0.0 30.0" Properties=species:S:1:pos:R:3:force:R:3 config_type=P_Si_dimer energy=-4.42025901 pbc="T T T"
Si       0.00000000       0.00000000       0.00000000       3.60074818       0.00000000       0.00000000
P        2.79310345       0.00000000       0.00000000      -3.60074818      -0.00000000      -0.00000000
2
Lattice="30.0 0.0 0.0 0.0 30.0 0.0 0.0 0.0 30.0" Properties=species:S:1:pos:R:3:force:R:3 config_type=P_Si_dimer energy=-3.93642102 pbc="T T T"
Si       0.00000000       0.00000000       0.00000000       3.40126320       0.00000000       0.00000000
P        2.93103448       0.00000000       0.00000000      -3.40126320       0.00000000      -0.00000000
2
Lattice="10.0 0.0 0.0 0.0 10.0 0.0 0.0 0.0 10.0" Properties=species:S:1:pos:R:3:force:R:3 config_type=P_Si_dimer energy=-3.49296829 pbc="T T T"
Si       0.00000000       0.00000000       0.00000000       3.13279763       0.00000000       0.00000000
P        3.06896552       0.00000000       0.00000000      -3.13279763      -0.00000000      -0.00000000
2
Lattice="10.0 0.0 0.0 0.0 10.0 0.0 0.0 0.0 10.0" Properties=species:S:1:pos:R:3:force:R:3 config_type=P_Si_dimer energy=-3.08028164 pbc="T T T"
Si       0.00000000       0.00000000       0.00000000       2.84888932       0.00000000       0.00000000
P        3.20689655       0.00000000       0.00000000      -2.84888932      -0.00000000      -0.00000000
2
Lattice="10.0 0.0 0.0 0.0 10.0 0.0 0.0 0.0 10.0" Properties=species:S:1:pos:R:3:force:R:3 config_type=P_Si_dimer energy=-2.7072289 pbc="T T T"
Si       0.00000000       0.00000000       0.00000000       2.56056523       0.00000000      -0.00000000
P        3.34482759       0.00000000       0.00000000      -2.56056523      -0.00000000       0.00000000
2
Lattice="10.0 0.0 0.0 0.0 10.0 0.0 0.0 0.0 10.0" Properties=species:S:1:pos:R:3:force:R:3 config_type=P_Si_dimer energy=-2.3734553000000003 pbc="T T T"
Si       0.00000000       0.00000000       0.00000000       2.28103018       0.00000000      -0.00000000
P        3.48275862       0.00000000       0.00000000      -2.28103018      -0.00000000       0.00000000
2
Lattice="10.0 0.0 0.0 0.0 10.0 0.0 0.0 0.0 10.0" Properties=species:S:1:pos:R:3:force:R:3 config_type=P_Si_dimer energy=-2.07726568 pbc="T T T"
Si       0.00000000       0.00000000       0.00000000       2.01673595      -0.00000000      -0.00000000
P        3.62068966       0.00000000       0.00000000      -2.01673595       0.00000000       0.00000000
2
Lattice="10.0 0.0 0.0 0.0 10.0 0.0 0.0 0.0 10.0" Properties=species:S:1:pos:R:3:force:R:3 config_type=P_Si_dimer energy=-1.8162224200000001 pbc="T T T"
Si       0.00000000       0.00000000       0.00000000       1.77175037       0.00000000       0.00000000
P        3.75862069       0.00000000       0.00000000      -1.77175037      -0.00000000      -0.00000000
2
Lattice="10.0 0.0 0.0 0.0 10.0 0.0 0.0 0.0 10.0" Properties=species:S:1:pos:R:3:force:R:3 config_type=P_Si_dimer energy=-1.8162224200000001 pbc="T T T"
Si       0.00000000       0.00000000       0.00000000       1.77175037       0.00000000       0.00000000
P        3.75862069       0.00000000       0.00000000      -1.77175037      -0.00000000      -0.00000000
2
Lattice="10.0 0.0 0.0 0.0 10.0 0.0 0.0 0.0 10.0" Properties=species:S:1:pos:R:3:force:R:3 config_type=P_Si_dimer energy=-1.58757414 pbc="T T T"
Si       0.00000000       0.00000000       0.00000000       1.54713471       0.00000000      -0.00000000
P        3.89655172       0.00000000       0.00000000      -1.54713471      -0.00000000       0.00000000
2
Lattice="10.0 0.0 0.0 0.0 10.0 0.0 0.0 0.0 10.0" Properties=species:S:1:pos:R:3:force:R:3 config_type=P_Si_dimer energy=-1.38853211 pbc="T T T"
Si       0.00000000       0.00000000       0.00000000       1.34234472      -0.00000000       0.00000000
P        4.03448276       0.00000000       0.00000000      -1.34234472       0.00000000      -0.00000000
2
Lattice="10.0 0.0 0.0 0.0 10.0 0.0 0.0 0.0 10.0" Properties=species:S:1:pos:R:3:force:R:3 config_type=P_Si_dimer energy=-1.21648081 pbc="T T T"
Si       0.00000000       0.00000000       0.00000000       1.15513639       0.00000000      -0.00000000
P        4.17241379       0.00000000       0.00000000      -1.15513639      -0.00000000       0.00000000
2
Lattice="10.0 0.0 0.0 0.0 10.0 0.0 0.0 0.0 10.0" Properties=species:S:1:pos:R:3:force:R:3 config_type=P_Si_dimer energy=-1.06918297 pbc="T T T"
Si       0.00000000       0.00000000       0.00000000       0.98283335      -0.00000000      -0.00000000
P        4.31034483       0.00000000       0.00000000      -0.98283335       0.00000000       0.00000000
2
Lattice="10.0 0.0 0.0 0.0 10.0 0.0 0.0 0.0 10.0" Properties=species:S:1:pos:R:3:force:R:3 config_type=P_Si_dimer energy=-0.9449830599999999 pbc="T T T"
Si       0.00000000       0.00000000       0.00000000       0.81944540       0.00000000      -0.00000000
P        4.44827586       0.00000000       0.00000000      -0.81944540      -0.00000000       0.00000000
2
Lattice="10.0 0.0 0.0 0.0 10.0 0.0 0.0 0.0 10.0" Properties=species:S:1:pos:R:3:force:R:3 config_type=P_Si_dimer energy=-0.84314413 pbc="T T T"
Si       0.00000000       0.00000000       0.00000000       0.65649776       0.00000000       0.00000000
P        4.58620690       0.00000000       0.00000000      -0.65649776      -0.00000000      -0.00000000
2
Lattice="10.0 0.0 0.0 0.0 10.0 0.0 0.0 0.0 10.0" Properties=species:S:1:pos:R:3:force:R:3 config_type=P_Si_dimer energy=-0.76477252 pbc="T T T"
Si       0.00000000       0.00000000       0.00000000       0.47546473       0.00000000       0.00000000
P        4.72413793       0.00000000       0.00000000      -0.47546473      -0.00000000      -0.00000000
2
Lattice="10.0 0.0 0.0 0.0 10.0 0.0 0.0 0.0 10.0" Properties=species:S:1:pos:R:3:force:R:3 config_type=P_Si_dimer energy=-0.71384279 pbc="T T T"
Si       0.00000000       0.00000000       0.00000000       0.25693578       0.00000000      -0.00000000
P        4.86206897       0.00000000       0.00000000      -0.25693578      -0.00000000       0.00000000
2
Lattice="10.0 0.0 0.0 0.0 10.0 0.0 0.0 0.0 10.0" Properties=species:S:1:pos:R:3:force:R:3 config_type=P_Si_dimer energy=-0.06365082 pbc="T T T"
Si       0.00000000       0.00000000       0.00000000      -0.00000000       0.00000000      -0.00000000
P        5.00000000       0.00000000       0.00000000       0.00000000      -0.00000000       0.00000000
2
Lattice="10.0 0.0 0.0 0.0 10.0 0.0 0.0 0.0 10.0" Properties=species:S:1:pos:R:3:force:R:3 config_type=P_Si_dimer energy=-0.69591262 pbc="T T T"
Si       0.00000000       0.00000000       0.00000000       0.01928790       0.00000000      -0.00000000
P        4.99000000       0.00000000       0.00000000      -0.01928790      -0.00000000       0.00000000
