15
Lattice="7.56311613909787 -0.1390180185849784 -0.10303045410862402 3.769512877212481 6.575673506707571 -0.1796285627098901 3.728357788268693 2.1162331091207847 6.197754909408754" Properties=species:S:1:pos:R:3:force:R:3 config_type=P_vac virial="1.7913303201808866 0.7282009785851038 0.8032302443602735 0.7282009785851038 -1.2215326411023022 0.6604787438860313 0.8032302443602735 0.6604787438860313 2.382886407463266" energy=-7.15468516 pbc="T T T"
Si       1.68248442       0.89963462       2.97878433      -0.14775399      -0.24056074      -0.36777420
Si       3.55687954       1.94531597       3.83400222      -0.23492925       0.12873452      -0.56983528
Si       1.73731732       3.25463498      -0.18858053      -0.34201285      -0.35303281      -0.11366521
Si       3.64323202       4.17046607       0.48884146       0.00894795       1.03748799      -0.17380982
Si       3.66470477       4.16680672       2.99480108      -0.10857753       0.17568608      -0.11555209
Si       5.42308920       5.36195530       3.56462445       0.09672242       0.09553032       0.05929810
Si       3.66259193      -0.16326345      -0.16923490      -0.55872868      -0.03212021       0.05839626
Si       5.46471383       0.84780168       0.63892005       0.35285376      -0.36791017      -0.47818109
Si       5.63040805       0.93351546       2.89901533       0.01016434      -0.04412013       0.37983879
Si       7.38346314       1.94201653       3.55839470       0.12377463       0.06257065       0.08526623
Si       5.70066802       3.02978523      -0.11127266      -0.16976276       0.33724279      -0.13497247
Si       7.57994062       4.28647969       0.38355041       0.09749834       0.04842334       0.09901355
Si       7.50656211       4.20897563       2.83950529      -0.04505229       0.00288806      -0.05825343
Si       9.29547624       5.15890593       3.60977090       0.06164650      -0.08831265       0.02014635
P       -0.18585601      -0.00031096      -0.14610667       0.85520940      -0.76250705       1.31008430
15
Lattice="7.660027668116348 -0.15172593260403555 -0.16564485309534685 3.7649717456913367 6.590586007944128 -0.12023144996983148 3.703148271533892 2.095353469663075 6.188963925794171" Properties=species:S:1:pos:R:3:force:R:3 config_type=P_vac virial="2.931317977082175 2.3714175453053756 1.0828239601797995 2.3714175453053756 1.6395483903413686 0.42262799295951314 1.0828239601797995 0.42262799295951314 1.1671601969514382" energy=-8.139786549999997 pbc="T T T"
Si       1.75827441       0.97359057       0.74893044       1.31384156       0.76906800       0.55402968
Si       1.69562418       0.94362794       3.07469628      -0.06742059      -0.04928596      -0.00254483
Si       3.71348560       2.05611357       3.72311619      -0.01980927      -0.19847915       0.25928067
Si       1.87361788       3.32005313      -0.13308471      -0.56231317       0.03584996      -0.07864586
Si       3.79871986       4.28191407       0.61766048      -0.05108141      -0.66265069       0.10581254
Si       3.67419572       4.20431490       2.96893518       0.02212112       0.18262220       0.17876155
Si       5.55033320       5.22272536       3.72390005       0.18940365      -0.03171028       0.09543621
Si       3.80132027      -0.25348406      -0.34428340      -0.13694147      -0.42860030      -0.08255397
Si       5.57597546       0.90545454       0.50397321       0.12799725      -0.19241289      -0.03959355
Si       5.62516335       0.81448141       2.85088608       0.03425729      -0.00570483       0.19860129
Si       7.48350676       1.96011257       3.67829432       0.03147642       0.15031696       0.10026207
Si       5.65200739       3.16175440      -0.18916104       0.48862234       0.27527949       0.02345572
Si       7.38239337       4.27770084       2.80204491      -0.07480405      -0.04056181      -0.25359099
Si       9.33434089       5.26714180       3.67296031      -0.13949783      -0.06071719       0.05552155
P       -0.01948462      -0.11562480       0.01408300      -1.15585185       0.25698647      -1.11423205
15
Lattice="7.5904530427186225 -0.10554825908451664 -0.1246916269774299 3.707285350370114 6.556292537663229 -0.17470791428732502 3.716724069176757 2.132430541436567 6.217451826653834" Properties=species:S:1:pos:R:3:force:R:3 config_type=P_vac virial="0.2742600737655332 0.6910150504741717 1.0203645306253906 0.6910150504741717 0.585786875831094 0.7138834974998258 1.0203645306253906 0.7138834974998258 2.510104163888769" energy=-7.939514149999994 pbc="T T T"
Si       1.84201921       0.89784043       0.73789888       0.28866244       0.22605620       0.14049450
Si       1.69944423       0.95172001       2.91839133       0.08337389       0.04055731       0.38709277
Si       3.64746865       2.10749402       3.81904034       0.13438687      -0.13480685      -0.45379970
Si       1.73389043       3.13010905      -0.16695779      -0.00705967       0.36758500      -0.20622871
Si       3.58042896       4.18297653       0.50662149       0.23982879      -0.24107091       0.03342643
Si       3.53186480       4.29479653       2.84507003       0.07298403       0.26167616       0.08256913
Si       5.46826074       5.32177125       3.61118847      -0.00404378      -0.06549211      -0.01316030
Si       3.74313988      -0.13786955      -0.17376591       0.26422898      -0.20930590      -0.18234966
Si       5.47101152       1.00043766       0.57271786       0.45707621       0.19582665      -0.00151763
Si       5.64104826       0.86123949       2.87698433       0.08966088      -0.07140948       0.04404619
Si       7.49260543       1.93883800       3.69244049      -0.08152660       0.01141427      -0.02947067
Si       7.50678803       4.24250170       0.40129309      -0.33041708      -0.20784623      -0.08147535
Si       7.46982188       4.24475026       2.88044248       0.14981758       0.06829318      -0.10503298
Si       9.17748417       5.29267678       3.68930617      -0.02418908       0.03116837       0.32272543
P       -0.04088901      -0.11599189      -0.06677213      -1.33278346      -0.27264563       0.06268055
15
Lattice="7.651599031149428 -0.183778260309801 -0.17664566482800254 3.7289333768893482 6.585919206571396 -0.10302407205165533 3.7567852226207976 2.124456961483055 6.23225983224308" Properties=species:S:1:pos:R:3:force:R:3 config_type=P_vac virial="1.9475056950144998 0.9770641446178159 -1.3590040256395848 0.9770641446178159 0.6090041573248621 0.6728166930978916 -1.3590040256395848 0.6728166930978916 1.2635939478254423" energy=-7.390067900000005 pbc="T T T"
Si       1.81550428       0.88776682       0.69447797       0.02367539       0.34766974      -0.43835664
Si       1.79063448       0.87603196       3.00323167      -0.14726192      -0.11854559       0.10325517
Si       3.57911000       1.97614992       3.85629223       0.34227237       0.01680774      -0.16552726
Si       1.83238389       3.25349789      -0.10303162       0.11202299      -0.11503389       0.08466043
Si       3.76728257       4.31630501       0.68529213      -0.27375108       0.61492655      -0.52433337
Si       3.65883051       4.26186352       3.06715886       0.04295230       0.12544157      -0.10139231
Si       5.48490289       5.24413937       3.67799071       0.03826097      -0.02341354       0.07108542
Si       3.65384095      -0.09459839      -0.19252759       0.46113801      -0.03851538       0.04301082
Si       5.58799416       0.95371595       2.94266986       0.20376774      -0.14234157      -0.39001922
Si       7.60224729       1.90456232       3.61378990      -0.18249029       0.04139149       0.06328382
Si       5.64429089       2.99307513      -0.14630267       0.11675637      -0.23545948       0.02924072
Si       7.59643094       4.25034871       0.54880776      -0.07975415       0.06554465      -0.00213813
Si       7.52559039       4.10460300       2.86494758       0.06216188      -0.02327110      -0.02688020
Si       9.36232328       5.20772363       3.74933893      -0.11339842       0.09857945       0.07108323
P       -0.12392301      -0.01493505      -0.12432522      -0.60635215      -0.61378065       1.18302754
15
Lattice="7.618054355046248 -0.19979766969965929 -0.11753904994320069 3.780453606668893 6.598313398767712 -0.16141200129659733 3.698139785625701 2.136856874575145 6.196793354335996" Properties=species:S:1:pos:R:3:force:R:3 config_type=P_vac virial="0.5605357696278208 0.2858951432000265 1.4951464123341132 0.2858951432000265 1.2200699235963657 0.8946905059724419 1.4951464123341132 0.8946905059724419 0.7166834326564615" energy=-7.914938570000004 pbc="T T T"
Si       1.89924125       0.93954331       0.60879344       0.32125257       0.43217055       0.29760785
Si       1.73190560       0.98096027       3.09769823      -0.14826597      -0.06410976      -0.02785134
Si       3.60327925       1.96276297       3.78777082       0.02563992       0.01524829       0.13892106
Si       1.80344353       3.29779528      -0.13260051      -0.01831048       0.23297056      -0.15339338
Si       3.80244308       4.26258024       0.61071487       0.35196293      -0.22959743      -0.04714151
Si       3.51613146       4.19651901       3.00074218       0.00252267       0.42648911      -0.14593786
Si       5.44888967       5.34880068       3.71557351       0.02282243      -0.05794536       0.03957784
Si       3.67345632      -0.17295863      -0.31750367       0.27583751      -0.15399287      -0.18790916
Si       5.45412460       0.79747680       0.61286339       0.21907280       0.21323522      -0.04045899
Si       5.51372495       0.85377305       3.00729826       0.27054271      -0.08328697      -0.12068482
Si       7.47157475       1.90561310       3.59882363      -0.02025937       0.04672080       0.05258354
Si       7.52577118       4.30005170       0.41061753      -0.29264579      -0.10784014      -0.06972954
Si       7.36533030       4.13141632       2.88204535       0.10656803       0.06953699      -0.09014831
Si       9.22885308       5.16131591       3.73668234      -0.02200908      -0.11652077       0.33292315
P       -0.05411198      -0.06187873      -0.02882797      -1.09473088      -0.62307821       0.02164149
15
Lattice="7.631608240042875 -0.12744168487591934 -0.1778936135148821 3.695399151291327 6.585476946106719 -0.15085516372516206 3.761427928120196 2.045840752657962 6.1475815167265875" Properties=species:S:1:pos:R:3:force:R:3 config_type=P_vac virial="1.277341078723377 0.661704368293623 -0.1178338077449479 0.661704368293623 -0.1283964579612853 -0.9152342023405595 -0.1178338077449479 -0.9152342023405595 2.531583463499108" energy=-7.978418309999995 pbc="T T T"
Si       1.86671802       1.01011283       0.65709041       0.01367268      -0.02377420       0.07790083
Si       1.73099730       0.93552678       3.00290567       0.02929343       0.06110355       0.41610896
Si       3.69924486       2.02143684       3.79215025       0.03063844       0.16217042      -0.83646111
Si       1.77199778       3.16595894      -0.20410328      -0.05559566       0.35248729      -0.06962744
Si       3.69291123       4.21872785       0.58081764       0.04464851      -0.07409539       0.37497910
Si       5.43158516       5.24222583       3.55223963      -0.21199301      -0.21515781      -0.23311456
Si       3.70954483      -0.10373896      -0.32018278       0.09442435      -0.07693866      -0.05205260
Si       5.51060432       0.97782479       0.43851730       0.61128302      -0.38647315       0.05645511
Si       5.60476811       0.90295976       2.95886686       0.01506793       0.02288066       0.19417360
Si       7.55223324       1.93814356       3.48292845      -0.00194815       0.03122754      -0.06969571
Si       5.53122158       3.16649130      -0.27306662       0.09181841       0.27983629      -0.12236737
Si       7.59031712       4.26307454       0.47344947      -0.01001757      -0.06549705       0.05344441
Si       7.45114295       4.24514920       2.80753236       0.05039280       0.15410687       0.12152543
Si       9.20847674       5.18307912       3.55517550       0.15531168      -0.27491449      -0.17042398
P       -0.01245356      -0.14369298      -0.08626592      -0.85699686       0.05303813       0.25915532
15
Lattice="7.6325442400935755 -0.16617091217165858 -0.19054206616674088 3.779568473249993 6.555902780359075 -0.11922985972258526 3.727168630249428 2.0671591169950854 6.152428843472094" Properties=species:S:1:pos:R:3:force:R:3 config_type=P_vac virial="1.3285271100120974 0.4107786144967598 -0.44170346666035165 0.4107786144967598 2.7803294798407863 -1.5412470200738075 -0.44170346666035165 -1.5412470200738075 1.0171583425368194" energy=-7.805002599999995 pbc="T T T"
Si       1.85282306       0.82466835       0.74546339      -0.17692508       0.15654975      -0.11529502
Si       1.75454456       0.87572693       3.05371411      -0.03117285      -0.00092092       0.28582761
Si       3.60133733       2.04942521       3.68264886      -0.09560698       0.30396089      -0.00800402
Si       1.91900412       3.27500251      -0.20578734      -0.18954116       0.03636772       0.01808959
Si       3.69537372       4.31311627       0.51428298      -0.17642629      -1.55641835       0.76506104
Si       5.47165496       5.24578256       3.57868860      -0.18656968      -0.17667186      -0.24659130
Si       3.69110949      -0.15126998      -0.32331941      -0.23690533      -0.11902912      -0.08279307
Si       5.56159386       0.95371929       0.49999882       0.08045109      -0.20654929       0.10324077
Si       5.65577068       0.78488684       2.86888465      -0.04111203       0.03421012       0.41669241
Si       7.45464398       1.87491799       3.64832475       0.05768573       0.01960857      -0.06854407
Si       5.67321369       3.03890598      -0.11007607       0.08393632       0.48779454      -0.13546090
Si       7.47749694       4.22705190       0.50485654       0.07127338      -0.03486658       0.06521779
Si       7.56203843       4.15079047       2.85544749       0.01436300       0.14468954       0.13113385
Si       9.26166158       5.14860314       3.63233127       0.17056461      -0.30856012      -0.15741071
P       -0.18842376      -0.16539654      -0.04241501       0.65598525       1.21983513      -0.97116397
15
Lattice="7.618395188933079 -0.14403450172221155 -0.18290662628123394 3.742330830190494 6.518857186351212 -0.142294082964206 3.70998833207705 2.086521972448423 6.2342085327937315" Properties=species:S:1:pos:R:3:force:R:3 config_type=P_vac virial="2.369623729943962 0.810309539426088 0.25551728520313155 0.810309539426088 0.40566482246366853 0.5026087342311136 0.25551728520313155 0.5026087342311136 1.5053412567086806" energy=-7.287891630000004 pbc="T T T"
Si       1.67261887       0.98336550       3.01520463      -0.30913552      -0.06920300      -0.47395166
Si       3.60195439       2.06176840       3.83459625      -0.15762928      -0.09062058      -0.18839640
Si       1.88229702       3.25585408      -0.17149293      -0.23086146      -0.63318654      -0.00808065
Si       3.65624132       4.26694789       0.53679970      -0.15682975       0.22283767      -0.11805528
Si       3.67461028       4.30388561       3.01843530       0.00784866       0.16416891       0.02627019
Si       5.46618175       5.20916849       3.61421435       0.11371227       0.12950931       0.10362799
Si       3.76326311      -0.12650151      -0.33691163      -0.63520757       0.10231093      -0.00614200
Si       5.63928893       0.89132742       0.52692524      -0.17462463      -0.22029738      -0.08154019
Si       5.59296650       0.80220986       3.02196926       0.06606362      -0.00751947       0.11767311
Si       7.49478989       1.83736279       3.52468867       0.25387099       0.01981640       0.07466431
Si       5.65087016       2.99152394      -0.18687097       0.00910703       0.30533419      -0.11758666
Si       7.43644622       4.20212151       0.41289637       0.16434200       0.12701572       0.03809484
Si       7.36197611       4.06733706       2.90527736      -0.06317266      -0.04003738      -0.03266855
Si       9.26070115       5.11082052       3.66288094      -0.02389351      -0.05251868      -0.03652881
P       -0.15989537      -0.04833732      -0.13163860       1.13640980       0.04238990       0.70261977
15
Lattice="7.59458825507429 -0.14557626072576196 -0.18350204683607793 3.705115080295613 6.507015185372787 -0.10154732327953675 3.7491210314501497 2.0894183945483977 6.174220697158644" Properties=species:S:1:pos:R:3:force:R:3 config_type=P_vac virial="2.182331796258394 0.018112453680834584 0.9995520216555263 0.018112453680834584 1.3751708884287028 1.5879213709941447 0.9995520216555263 1.5879213709941447 0.8094191403805125" energy=-7.763721470000007 pbc="T T T"
Si       1.75386364       0.94750877       0.58954225       0.69821645       0.78349345       0.55826081
Si       3.68121510       2.00896592       3.72317764      -0.41668053       0.04474771      -0.73644250
Si       1.71859803       3.14665952      -0.25087317      -0.20757726      -0.15135733       0.03787805
Si       3.73951154       4.16603074       0.54959915      -0.22243320       0.21757969      -0.15712237
Si       3.50412442       4.14312611       2.95455090      -0.11728368       0.03112388       0.28741476
Si       5.48585663       5.15670666       3.58868683       0.13072148       0.29168659      -0.15043238
Si       3.69943732      -0.14651172      -0.23220248      -0.46010096      -0.28736012      -0.13942057
Si       5.47465826       0.78728320       0.58235253      -0.23945805       0.32640967       0.09414574
Si       5.59958795       0.94338477       2.92244802       0.09575564      -0.05913589       0.45478146
Si       7.44559304       2.02321783       3.54340867       0.34300608      -0.04681764      -0.17039159
Si       5.52819642       3.10310936      -0.14832175       0.02371183       0.12698827      -0.05586368
Si       7.50771985       4.22607388       0.37774628       0.07628158      -0.00066648       0.03136266
Si       7.52519359       4.21540103       2.86913679      -0.17944340      -0.08098144       0.11850716
Si       9.33092646       5.13918351       3.68658112       0.00174401      -0.04610306      -0.06046562
P       -0.18458926       0.00468805      -0.12625212       0.47354002      -1.14960732      -0.11221190
15
Lattice="7.600789684956921 -0.17377837029452894 -0.13835791937428532 3.765083534199243 6.551297185866661 -0.16178002563217103 3.7013478812997387 2.066089436966618 6.154989543073889" Properties=species:S:1:pos:R:3:force:R:3 config_type=P_vac virial="-1.0247595026090224 0.3521540965063208 -0.032487267769426786 0.3521540965063208 0.41384306348729893 -1.8716354039833778 -0.032487267769426786 -1.8716354039833778 3.153954228533146" energy=-7.044350489999999 pbc="T T T"
Si       1.90003093       1.00706859       0.68356353      -0.92263575      -0.38466443      -0.58949065
Si       1.83912690       0.85428334       2.94210180      -0.12629167      -0.03239963       0.13379025
Si       3.53152686       1.96648440       3.79084964       0.11464568       0.28190657      -0.51086788
Si       1.87467328       3.11000163      -0.18182046       0.21178805       0.35957166       0.03197854
Si       3.54676509       4.12461829       2.94031325       0.01253989       0.22480245      -0.39112368
Si       5.41892061       5.31408873       3.70904258      -0.02695291      -0.10996014       0.04689612
Si       3.70803095      -0.24735312      -0.15768583       0.00375994      -0.00824805      -0.02721433
Si       5.47623985       0.90618669       0.65389236       1.13212325      -0.55478745      -0.58085223
Si       5.59423831       0.74650099       2.99645357       0.05210332      -0.00888556       0.08344082
Si       7.49222449       1.92862430       3.56107590      -0.02455945       0.03550988       0.01297158
Si       5.63744951       3.05065737      -0.23633709      -0.19096524       0.34501994      -0.04388496
Si       7.56615026       4.28386723       0.53047749      -0.01140876      -0.04481668       0.01620122
Si       7.37299744       4.06838151       2.79558589       0.00359729       0.05267246      -0.02030346
Si       9.22472652       5.20365812       3.58580321       0.02379225      -0.08482736       0.07204069
P       -0.09892535      -0.12810762      -0.16131169      -0.25153587      -0.07089368       1.76641797
16
Lattice="7.5770067193151815 -0.1531704550060778 -0.12990916231039784 3.7285361558812005 6.515448299499117 -0.19143797741434565 3.785774240486396 2.0793459555354996 6.174935578481938" Properties=species:S:1:pos:R:3:force:R:3 config_type=P_vac virial="2.8534655213317155 1.6137535580173203 1.3407918654061275 1.6137535580173203 1.734463188702569 -0.16481142081609335 1.3407918654061275 -0.16481142081609335 2.38193155522463" energy=-7.843923180000004 pbc="T T T"
Si       1.77874185       0.95333101       0.69190999       1.58340887       0.92819713       0.62207907
Si       1.83741987       0.95370949       3.03141992      -0.19007227      -0.14969461       0.04247349
Si       3.57850381       2.08419416       3.79099274       0.14818170       0.02524211      -0.74846145
Si       1.84138515       3.17951181      -0.21694688      -0.17765758      -0.05320125      -0.12017095
Si       3.58749677       4.24516023       0.54447751       0.19809176      -0.43175673       0.11879355
Si       3.54121026       4.27910652       2.81147667      -0.01522854       0.10769142       0.17323732
Si       5.51746598       5.33368088       3.62174453       0.03752612       0.06415913       0.02103371
Si       3.73054417      -0.24176329      -0.25746672      -0.12006741      -0.11934578      -0.09896114
Si       5.50617356       0.78448883       0.64373294       0.17048967       0.12765167       0.06497146
Si       5.50758307       0.81358168       2.90956203       0.06285662      -0.05672806       0.10477330
Si       7.44313979       1.82827651       3.52673803       0.03109158       0.01374474       0.01202275
Si       5.58902435       2.98431792      -0.15159370      -0.00451155       0.13762585      -0.07030618
Si       7.41895836       4.11362985       0.42771546       0.02337107       0.00755855       0.03220556
Si       7.51163907       4.16684050       2.84118350       0.00833136      -0.00441739      -0.00647719
Si       9.20948237       5.27292829       3.62576980      -0.00912572       0.02328854      -0.03312596
P       -0.00745248      -0.05797997      -0.06560089      -1.74668567      -0.62001533      -0.11408733
15
Lattice="7.613231729984494 -0.10167473534696699 -0.11126188011105251 3.75701958468441 6.514797348653385 -0.13373484623663742 3.7187838543317433 2.112516698215225 6.228977208347524" Properties=species:S:1:pos:R:3:force:R:3 config_type=P_vac virial="0.5769203843331647 -0.5316313166868971 0.2171306242481137 -0.5316313166868971 1.885892689673125 0.07727690274517296 0.2171306242481137 0.07727690274517296 -0.3161725092712988" energy=-7.466058939999996 pbc="T T T"
Si       1.79786284       0.85879098       0.74163396      -0.37671152       0.01152888      -0.05045726
Si       1.71996957       1.06498443       2.92964902       0.05372327       0.09470905       0.14023752
Si       3.66669141       1.95502140       3.80555947       0.02178831       0.05394923       0.89176662
Si       1.86434183       3.15641957      -0.25918584       0.27807367       0.45958605      -0.06200022
Si       3.60499837       4.21901577       2.96332663      -0.00843848       0.24169154      -0.33310108
Si       5.54247670       5.35667000       3.63182386      -0.04947491      -0.17771341       0.12776978
Si       3.70204411      -0.18977762      -0.18956391      -0.02488723      -0.06183922      -0.08338472
Si       5.55007668       0.88100954       0.54472896       0.42846869       0.05903821      -0.01727372
Si       5.64278243       0.86894721       3.03289888      -0.05054402       0.05022626       0.08603057
Si       7.36301331       2.05525048       3.69239547      -0.02378083       0.03620449      -0.04566996
Si       5.56950564       3.17185297      -0.05954565      -0.27012172       0.33767832       0.04154260
Si       7.54901426       4.20912169       0.42442914      -0.03829068      -0.19244787       0.04005279
Si       7.52026828       4.18582457       2.93489676       0.01913430       0.06774008      -0.03658982
Si       9.36380588       5.13686741       3.59446159       0.06270034      -0.13639090       0.06194075
P       -0.15663559      -0.14830069       0.02493206      -0.02163916      -0.84396072      -0.76086384
15
Lattice="7.566539660859691 -0.1327228800114133 -0.1974243340468277 3.7759231559047084 6.603016480174795 -0.1861461419380934 3.7820646448067823 2.1114109877769596 6.224230479055265" Properties=species:S:1:pos:R:3:force:R:3 config_type=P_vac virial="1.4452020086445847 1.3952017528610692 0.20133369420938063 1.3952017528610692 -0.6790439432384381 1.1490427570791637 0.20133369420938063 1.1490427570791637 -0.7215988923442449" energy=-7.292088680000006 pbc="T T T"
Si       1.75909670       0.88577246       3.09619930      -0.34439963      -0.18631748      -0.46183767
Si       3.66908306       2.08994914       3.78188557      -0.11565891      -0.23748735       0.59278556
Si       1.74914562       3.25912796      -0.24999229      -0.35086460      -0.58855632      -0.01548603
Si       3.61941464       4.20483022       0.49878320      -0.15661602       0.81296194      -0.31287598
Si       3.64983148       4.18236722       2.89482973      -0.06692429       0.18210852       0.11120874
Si       5.54833046       5.40096033       3.62835297       0.16246786       0.16946494       0.08751169
Si       3.63401830      -0.24622007      -0.25990766      -0.51886343       0.06900639       0.04067768
Si       5.51176488       0.95930507       0.46427568       0.30077282      -0.53982496      -0.11051426
Si       5.51186845       0.92733018       2.91000362       0.01829516      -0.07298608       0.05379249
Si       7.45904716       1.92402414       3.56734613       0.22582746       0.02763888       0.10317045
Si       5.53232226       3.09474278      -0.25176527       0.02611749       0.10138053      -0.13843631
Si       7.52272786       4.27854996       0.42491857       0.18713528       0.10608250       0.01540847
Si       7.46302535       4.20246566       2.71747047      -0.08319363      -0.02891192      -0.02994084
Si       9.22139812       5.23620474       3.52589973      -0.01612035      -0.03434521       0.00005834
P       -0.16292347      -0.09626097      -0.06132908       0.73202479       0.21978561       0.06447771
15
Lattice="7.6368405434500595 -0.12745517979359566 -0.16137980621604917 3.764598361430999 6.582925124692299 -0.1717716124839284 3.7720090139597375 2.054453013452087 6.194317286681156" Properties=species:S:1:pos:R:3:force:R:3 config_type=P_vac virial="1.6734588064907951 0.18195367390461392 0.3740274652724134 0.18195367390461392 0.2547460588843107 -1.234402474803012 0.3740274652724134 -1.234402474803012 1.5702113274638076" energy=-7.92339217 pbc="T T T"
Si       1.92087234       0.94787704       0.59184966       0.12742672       0.20477084       0.17697658
Si       1.81975868       0.87926565       3.03567710      -0.00347263       0.01896295       0.36575548
Si       3.70836856       1.99464438       3.78424756      -0.14150635       0.34236343      -0.68875835
Si       1.88224336       3.27290084      -0.29440812      -0.09388608       0.24412049      -0.06209259
Si       3.78166748       4.24956883       0.46910147      -0.06137718      -0.36634390       0.43037572
Si       5.59905924       5.32638595       3.60954110      -0.18972081      -0.19938895      -0.18127326
Si       3.65012994      -0.18699386      -0.29358361       0.06709374      -0.12635491      -0.08009033
Si       5.58679676       0.89071591       0.57795463       0.19662523      -0.06471317      -0.04231303
Si       5.55376868       0.81195582       2.94281105       0.09777838      -0.02693376       0.36810473
Si       7.57084925       1.96701784       3.51391890       0.02459617       0.02960514      -0.06302530
Si       5.71966499       3.08014583      -0.16529444       0.02603775       0.39672431      -0.06263486
Si       7.49521212       4.23532044       0.37633198       0.02217840      -0.04310618       0.03952654
Si       7.42887001       4.25926989       2.76699304      -0.01026572       0.15684193       0.10803142
Si       9.27197219       5.28381714       3.56788337       0.18273079      -0.23178264      -0.18777725
P       -0.04500215      -0.10128389      -0.08878909      -0.24423843      -0.33476560      -0.12080549
15
Lattice="7.651733100807603 -0.11437308918229598 -0.1673485834477196 3.7899958340064583 6.510233250512743 -0.11833634737450668 3.7130151461588605 2.085331576960859 6.194304511465232" Properties=species:S:1:pos:R:3:force:R:3 config_type=P_vac virial="-0.3331013200705799 0.7538474533532007 -0.51156923267044 0.7538474533532007 2.107942145567461 0.596733755315912 -0.51156923267044 0.596733755315912 1.0676432461890377" energy=-7.964916529999996 pbc="T T T"
Si       1.92608495       0.93400163       0.71944338      -0.39841738      -0.08253636      -0.08132726
Si       1.77995390       0.89012544       2.91235522       0.17466509       0.01004125       0.39462761
Si       3.60485685       2.08452975       3.76494165       0.22055035      -0.15578055      -0.40811445
Si       1.88234162       3.14198233      -0.19222123      -0.10054985      -0.04031638      -0.04449550
Si       3.63419248       4.19717411       0.51705919       0.07029385      -0.34805149       0.02014170
Si       3.52785563       4.27276301       2.87241291       0.05653810       0.02465855       0.50104775
Si       5.41461081       5.19884280       3.63098391       0.01375435       0.00077045      -0.08025801
Si       3.77163624      -0.21117305      -0.20721600       0.19372635      -0.23543184      -0.13712656