 17
 config_type=P_int virial="5.27731777      -1.97850960      -0.97218907      -1.97850960      11.83806641      -2.51238022      -0.97218907      -2.51238022      10.31401886" energy=-1.5673659403586631 cutoff=5.00000000 nneightol=1.20000000 pbc="T T T" Lattice="7.74350993       0.00000000       0.00000000       3.87815890       6.69158098       0.00000000       3.85516841       2.23973876       6.35620957" Properties=species:S:1:pos:R:3:force:R:3:Z:I:1:map_shift:I:3:n_neighb:I:1:local_energy:R:1:local_virial:R:9
 Si              1.98275554      1.11276674      0.78597677     -0.10416403      0.14495611     -0.09055249      14       0       0       0      35     -0.10597923      1.38558740      0.19288990      0.66109719     -0.41586692      0.20274528     -0.24060169      0.76642004      0.01106993      0.50556664
 Si             -0.08665174      0.10521540      0.03788899      0.57547623     -0.27292167      0.55107908      14       0       0       0      32     -3.90719347      1.26419811     -3.05453438      1.05544641     -3.45676454      1.55088781     -2.60960648      0.83452194     -2.02478062      1.88603608
 Si              1.88741215      1.09119489      3.16416375     -0.15322998     -0.44759611     -0.32861089      14       0       0       0      32     -1.84227877      1.43327213      1.81205978      1.42741619      3.06625780      7.59511770      5.15068862      2.28408737      4.96728052      4.41416476
 Si              3.78986722      2.22540294      4.01800978      0.14039487     -0.85977912     -0.52771112      14       0       0      -1      33     -4.25222946      0.86313312     -3.06768065     -2.11447513     -0.75478510      4.07182562      1.57988381     -0.57882853      1.56441623      3.40516399
 Si              1.97224295      3.39708967     -0.00401409     -0.12457521     -0.02558646     -0.03566241      14       0      -1       0      36     -0.08814844      1.91147765      0.91653185      0.72910754      0.92992279      0.24696771      0.45937846      0.71635000      0.43267415      0.18102538
 Si              3.93171284      4.42287267      0.84999865     -0.34320912     -0.43348505     -0.11727185      14       0      -1       0      35      0.02838816      0.06073505      0.38748192      0.36708913      0.33481330      0.16720289     -0.49901721      0.25098926     -0.54479417      0.08299483
 Si              3.82753164      4.47393325      3.14835953      0.83449740      0.47044443     -0.78476555      14       0      -1       0      33     -3.56031026      1.98035268     -0.09589185     -3.71268148      0.41537168      0.79614238     -1.82220880     -3.13798064     -0.89759521      2.82728173
 Si              5.72264392      5.52487613      3.98457543     -0.21337712     -0.06477416      0.01930996      14       0      -1      -1      36     -0.22046049      3.04529026      1.37854629     -0.26888088      1.40479575      0.87185728     -0.21302141     -1.79764560     -0.91852313      0.33314964
 Si              3.85996242     -0.02609998     -0.11152602     -0.29108118     -0.24961068      0.01227255      14      -1       0       0      33     -2.40336896      6.67576057      4.81360111     -0.16986790      4.52382720      3.70693826     -0.24270988     -2.15564895     -1.67978163      0.48525163
 Si              5.71893483      1.08895863      0.83337352     -0.85591537     -0.62743910      1.33961754      14      -1       0       0      34     -4.40828663      1.96602433     -0.10515095     -1.28264471     -0.14515158      2.07987345     -0.79991610     -2.89369763     -2.35210070      3.46086791
 Si              5.79561286      1.17712253      3.22569901      0.43602883      0.33965619      0.15671757      14       0       0      -1      36      0.01885483      1.02063354     -0.20723088     -0.14424460     -0.27201137      1.67754745     -0.18995370     -0.15498617     -0.20296124      1.61021100
 Si              7.85037987      2.24391305      3.93559643      0.32564369      0.19411627      0.11296484      14      -1       0      -1      33     -2.55555162      8.65533007      5.43005663      3.92415091      3.85325275      5.04600976      2.18854907      3.17438168      2.44483593      3.81151423
 Si              5.84251643      3.33684425      0.13054984      0.09339116      1.02758353      1.07844186      14       0       0       0      32     -4.14550047     -1.11927757     -1.30336127     -1.13841771     -0.79387554      4.17529417      2.49614625     -0.59767996      1.86898157      2.63299968
 Si              7.78103085      4.52510570      0.76624930      0.04507151     -0.05071179     -0.14064939      14      -1      -1       0      35     -0.18373325      0.51161570      0.32685689      0.23081701      1.56192109      2.27154586      1.38442470      0.98437969      1.26089821      1.33644722
 Si              7.72340751      4.43974001      3.12320186     -0.32014619     -0.03421496     -0.31725331      14      -1       0       0      32     -2.14466864      7.04352139      1.29008072      5.04893090     -0.84829299      0.29060202     -0.62387904      5.24045247      1.06313256      4.42785970
 Si              9.65926661      5.55585256      4.04744922     -0.94984978      2.26591241     -1.66049775      14      -1      -1      -1      33     -4.97107299      1.55305944     -0.86193259     -0.36433962     -2.33368415      2.29165838     -1.00822139      0.28379766     -0.36023417      3.39134154
 P              -5.40056418     -5.17366082     -1.32803299      0.90504431     -1.37654984      0.73257136      15       0       1       0      30     33.17417375    -32.97339610     -9.83083211     -5.22069233     -9.04823977    -25.20414962     -7.52231543     -4.19110170     -7.14489845    -24.47785710
 17
 config_type=P_int virial="10.81537874      -4.39223138      -5.75770274      -4.39223138      14.24878098      -1.24978351      -5.75770274      -1.24978351      18.00175006" energy=-.61340796355924054 cutoff=5.00000000 nneightol=1.20000000 pbc="T T T" Lattice="7.83372073       0.00000000       0.00000000       3.86630423       6.74418544       0.00000000       3.85313177       2.25383919       6.37685640" Properties=species:S:1:pos:R:3:force:R:3:Z:I:1:map_shift:I:3:n_neighb:I:1:local_energy:R:1:local_virial:R:9
 Si              2.00613902      1.08584888      0.80794310     -0.01401579     -0.04872431      0.08912174      14       0       0       0      34     -0.38042457      3.24013117     -0.22611157      2.11864367     -0.88164760      0.41763265     -0.63434667      2.75203264     -0.21896372      2.34047744
 Si             -0.12120332      0.00734846      0.04640976      0.58787155     -0.39263448      1.24201794      14       0       0       0      32     -3.88813831      0.67739926     -3.59785087      1.81985159     -3.48756678      1.27828400     -4.38191504      1.15838630     -3.36393276      4.33617299
 Si              1.99246947      1.06955616      3.09031060     -0.05108924     -0.39011754     -0.21831658      14       0       0       0      32     -1.29374631      2.65620709      2.91328917      1.83582635      4.08153969      6.95156942      3.72873014      2.70044016      4.00137437      3.36793648
 Si              3.88713117      2.28180935      3.95083150      1.81068452     -4.08856177     -2.22768220      14       0       0      -1      32     -4.78216653     -1.79099125     -2.54730351     -1.26067575     -1.98236966      3.35768692      0.71677168     -1.30990396      1.27542916      3.90155854
 Si              2.01892718      3.37626295     -0.05579193      0.15183346      0.11806265      0.18714741      14       0      -1       0      35     -0.09069782      3.46953656      1.94918071      1.56877624      1.87599226      1.65534741      0.88567634      0.61384070      0.34609508      0.89417474
 Si              3.88904977      4.50571483      0.77082508     -0.27258519     -0.26325083     -0.43564836      14       0      -1       0      32     -0.12639165      0.59218781     -0.16540298     -0.63602709     -0.31096229      0.98159260     -0.34765466     -0.76158139     -0.46661894      4.00198629
 Si              3.71720205      4.45013332      3.15068904      3.32329556      2.59259864     -5.42970505      14       0       0       0      32     -4.90055653      2.30615773     -0.64802807     -4.56934028     -0.60950135      2.95041969     -2.62717411     -4.19203281     -2.26344872      6.91418775
 Si              5.73491259      5.62099199      3.87551005      0.14762848      0.13190311     -0.03839723      14       0      -1      -1      34     -1.02613905      7.44227073      3.87128706     -0.54895887      3.64647442      3.29396779     -0.35749294     -1.62081140     -1.09785378      0.46202697
 Si              3.80680139      0.01176418     -0.18663817     -0.11335265      0.00932294      0.01524349      14       0       0       0      34     -0.68066666      4.38041443      2.00665960     -1.54298124      1.75275799      1.10049504     -0.67756857     -1.93545982     -1.00231185      0.91018597
 Si              5.88424217      1.16368549      0.75735270     -0.47288103     -0.22790058      0.18461730      14      -1       0       0      32     -3.34079733      1.50285711     -0.41016571     -3.13539923      0.11123457      1.35769544     -2.12872907     -5.47175931     -1.84171553      5.37053464
 Si              5.81761347      1.03324066      3.11478513      0.67741729      0.03372405     -0.01037885      14      -1       0       0      34     -0.00151574      1.19657356     -0.76219991     -0.87523926     -0.84165316      1.00076476      0.18558040     -0.65317283      0.19165446      1.03530866
 Si              7.82410361      2.27563869      3.96607688      0.14817714      0.13556945      0.15565078      14      -1       0      -1      32     -0.95644972      7.94442441      3.37550518      1.48303638      4.06526420      3.89566047      1.13522006      3.05635163      1.78473194      1.62948288
 Si              5.80812726      3.33068087      0.01787537      0.09016791      0.44814365      0.47857631      14       0       0       0      31     -3.43678558     -1.12084180     -1.74436643     -2.11907081     -2.84872549      3.93767668      3.23111627     -2.09939422      1.52073716      3.07067434
 Si              7.80736619      4.59676356      0.72359631     -0.08810694     -0.04207464     -0.02579807      14      -1      -1       0      34     -0.30486241      0.29978518      0.18933846      0.20397162      0.84777896      1.94601419      1.41845054      0.75295125      1.75948625      1.43740131
 Si              7.83750015      4.51126863      3.17685798     -0.23448395      0.11965053     -0.12490290      14      -1      -1       0      33     -1.35153008      9.63920991     -0.35092966      3.71571240     -1.39016216      0.88436723     -0.65235415      4.22490711     -0.14813113      2.29050256
 Si              9.58146530      5.67482538      3.95032712     -1.61778843      1.01651746     -0.52278783      14      -1      -1      -1      32     -3.93873236      1.35903335     -4.82600041      0.86658408     -6.41719833      2.69993230     -1.50182479      1.79040495     -1.87617188      2.24801221
 P               3.00778838     -5.17804800     -1.59799267     -4.07277271      0.84777167      6.68124209      15      -1       1       0      35     29.88619270    -32.97897651     -3.41913244     -4.68241255     -2.00348667    -23.46032559      0.75773106     -4.76290172      0.14985638    -26.20887372
 17
 config_type=P_int virial="8.56985038       0.72207882      -0.49336774       0.72207882       3.91307492       2.06323972      -0.49336774       2.06323972       6.31644276" energy=-1.6884626818557185 cutoff=5.00000000 nneightol=1.20000000 pbc="T T T" Lattice="7.68836048       0.00000000       0.00000000       3.89361207       6.75416728       0.00000000       3.87730581       2.24900066       6.28467291" Properties=species:S:1:pos:R:3:force:R:3:Z:I:1:map_shift:I:3:n_neighb:I:1:local_energy:R:1:local_virial:R:9
 Si              1.98287641      1.10669565      0.80483072      0.89814873      0.40338822     -0.58197096      14       0       0       0      33     -3.48674015      2.22264378      0.88111038     -1.51313109      1.22986630     -1.43470453     -0.25231589     -1.26998046      0.10333807      1.72676882
 Si              0.02126424      0.00602044      0.01844356      0.05096324     -0.28766955     -0.94422318      14       0       0       0      33     -4.32620004      2.30275576      0.04902151     -0.24216659      0.04296459      1.99073111      0.54047213     -0.25449620      2.15662474      4.17155611
 Si              1.91871026      1.13888031      3.12330121      1.24841930      0.44836509      0.37883317      14       0       0       0      32     -4.74095153      3.81864107      0.20599345      0.72320941      0.71594874      2.32808846      0.57387426      0.34630863      0.19772168      2.71810717
 Si              3.85104135      2.22011116      4.07208233     -0.01067329      0.24308121      0.37172891      14       0       0      -1      35      0.02094077      1.91468909     -0.00492717      0.03874660     -0.02310408      1.33680958      0.22729929      0.03800461      0.30882157      1.58246049
 Si              1.98436108      3.39237366      0.02721188     -0.15844042     -0.08337754      0.17180587      14       0      -1       0      35     -0.00018526     -0.08838440     -0.14824423      0.09827749     -0.29531810     -0.31885040      0.30044752      0.19446493      0.17772472     -0.08133622
 Si              3.91476019      4.49332828      0.78178687      0.02735924     -0.46435165     -0.30748306      14       0      -1       0      34     -2.71511050     -0.03251297      0.34735083      0.25656597     -0.08238296      7.88723907      1.95743573      0.00369067      3.36169947      1.56830890
 Si              3.86037121      4.53984862      3.10181612     -0.01148920      0.26430636     -0.14492504      14       0      -1       0      34     -3.19415639      2.20745616     -0.04196552     -0.16052589      0.70551802     10.24180245     -1.98745615     -0.41450829     -2.81619341      2.94678286
 Si              5.71613100      5.56700608      3.91351449      0.18114276     -0.34285214      0.25195997      14       0      -1      -1      33     -2.88934744      1.28525268     -2.91396476      1.89207974     -1.36992014      3.91742571     -2.06184659      1.67011288     -3.26177022      1.28012458
 Si              3.78137146      0.07289837     -0.09485591     -0.03320133     -0.52468981      0.07695375      14       0       0       0      36      0.02449499      0.23756629      0.03587934      0.05062229      0.02025611      0.13303625     -0.46429787      0.06378032     -0.52352909     -0.77992187
 Si              5.75759252      1.09912843      0.76287799     -0.71171744      0.34837581     -0.52158823      14      -1       0       0      33     -3.39659967      2.30981959     -1.03726957      1.85309417     -1.72854678     -0.67900128     -0.61781896      1.38278057      0.10153364      1.54960135
 Si              5.76777455      1.12671137      3.07271100     -0.98883470      0.20750821      0.20250516      14      -1       0       0      33     -4.70112548      3.84150924      0.30964075     -1.13338529     -0.53026544      1.84298815      0.66378123     -0.57542091      0.11138357      2.80625725
 Si              7.70625858      2.33743012      3.98535379      0.04558963      1.05873236      0.75670798      14      -1       0      -1      34     -3.59625087      0.69682114     -0.22974662      0.04605626     -0.21089223      0.57287580      2.86487585      0.05761785      3.19896173      1.88982921
 Si              5.80311870      3.24701009      0.11897718      0.16849574     -0.26005405      0.21789744      14      -1       0       0      34     -0.06862257      0.45021987     -1.11249650      0.64348749     -0.24054182      0.83858011     -0.43839454      0.37328454     -1.00134310      0.69233231
 Si              7.77222345      4.62835264      0.82751929      0.00338749     -0.04817085      0.04169927      14      -1      -1       0      35      0.01865873     -0.20311829     -0.01456569     -0.00686975     -0.01423864      0.03670039     -0.05801098     -0.00816458     -0.06225518     -0.16187006
 Si              7.68717707      4.59202905      3.16545225      0.00356660     -0.02565358     -0.22260051      14       0      -1      -1      35      0.01373650      0.14604113     -0.04901025     -0.01514577     -0.02035485     -0.62531266     -0.20553613     -0.09114372     -0.16808910      0.17331246
 Si              9.59147452      5.62146255      4.02533080     -0.37366116     -0.26943532      0.37288875      14      -1      -1      -1      33     -2.63042322      3.31758430      3.96201800     -3.19314563      2.44490128      4.45214415     -2.90838209     -2.36072806     -3.60088215      2.91382983
 P               3.82155308     -6.39237725      2.29567598     -0.33905518     -0.66750277     -0.12018930      15      -1       1       0      30     33.97941945    -15.85713409      0.48325488      0.16886285      0.07818883    -28.60747745      3.92911288      0.35102947      3.77949279    -18.67970044
 17
 config_type=P_int virial="7.52789384       2.82664651       2.19188005       2.82664651      10.87010367      -1.66601478       2.19188005      -1.66601478      11.09393895" energy=-1.7929202100458110 cutoff=5.00000000 nneightol=1.20000000 pbc="T T T" Lattice="7.74064261       0.00000000       0.00000000       3.89813511       6.68715326       0.00000000       3.92567232       2.24259248       6.33552934" Properties=species:S:1:pos:R:3:force:R:3:Z:I:1:map_shift:I:3:n_neighb:I:1:local_energy:R:1:local_virial:R:9
 Si              2.00313736      1.10143464      0.83075872      1.62496806      1.00657503     -0.89775263      14       0       0       0      33     -4.62992681      0.81913403      4.02803896     -0.75024601      5.09256850      2.01470874     -2.86877366     -1.44736224     -2.88658472      3.41661630
 Si             -0.02212601     -0.00110522     -0.05701130     -1.65502085      0.75782218     -1.79673703      14       0       0       0      33     -4.43329665      0.65088773      0.72096782      3.90901027      0.65792626      1.04548583     -2.41667682      4.83002994     -2.82009008      3.41497559
 Si              1.96610447      1.14028787      3.25440645      0.04087025      0.91257373      1.11651680      14       0       0      -1      34     -3.76786236     -2.04502390      2.95550818      2.98758915      1.95289447      4.41269788      3.00716498      1.84531008      2.52810900      3.92762891
 Si              3.83358444      2.19529025      4.09447227      0.43292790     -0.56128277      0.08050454      14       0       0      -1      34      0.02221808      0.34435634      0.31570394      0.02021368      0.32383199      1.20989524     -0.23997847     -0.04286934     -0.32153460      0.10247958
 Si              1.99283573      3.37131321     -0.04155015     -0.52462140      0.33776226      0.15230112      14       0      -1       0      36      0.01595189      0.36273950     -0.11977474      0.21314515     -0.14556550      0.34152269     -0.25116100      0.17700519     -0.17618671      0.85646286
 Si              3.96481768      4.42979705      0.79627164     -0.12653643     -2.03926506     -1.01683489      14       0      -1       0      33     -4.43549546     -2.84616570      2.73873057      1.87772822      1.68119773      4.64403207      1.78966764      1.14418541      1.64053118      2.82125228
 Si              3.90903900      4.41592925      3.03821105     -1.07763927     -0.88781466      0.53311861      14       0       0       0      33     -4.15846165      0.13776323      3.72889025     -0.71167666      4.64927471      1.33415079     -3.12918789     -0.80557863     -2.12020527      2.44103620
 Si              5.87977159      5.60847372      3.91216367      1.08197101     -0.34617675      0.64228435      14       0      -1      -1      33     -4.10596574      1.30234649      0.13664766      4.35802777      0.09581906      1.10714531     -1.90210860      5.62857754     -2.48126319      3.77826415
 Si              3.86864557      0.02619419     -0.13121741      0.21902471     -0.01316947     -0.18296658      14      -1       0       0      35     -0.73541811      5.77503728      0.28645508     -3.23706833      0.80993574      0.74965335     -0.39894928     -3.37720900     -0.01522347      2.86610168
 Si              5.79351766      1.10098709      0.80693270     -0.16596326      0.19245433     -0.17488279      14      -1       0       0      35     -1.12402284      8.12489411     -3.97215669      0.93229051     -3.95959904      3.28983138     -0.69626694      1.85303473     -1.20489047      0.99339941
 Si              5.90345762      1.11582600      3.19776828      0.17236409     -0.00569313      0.01081564      14      -1       0      -1      37     -0.88098579      6.91157653     -3.49219982     -2.98319332     -3.55917417      3.53012994      1.89264515     -2.46207673      1.53903174      2.77911356
 Si              7.79366559      2.29738917      3.81458426      0.00010467      0.13879828      0.16828540      14      -1       0      -1      35     -1.06290160      1.79809474     -2.26249586     -1.31563227     -2.83062611      6.17529411      3.64091162     -1.72901977      3.89695174      3.43482693
 Si              5.79507081      3.38659653      0.04253161     -0.08814742     -0.02802049     -0.10564673      14       0      -1       0      36     -1.32420458      2.65584127     -2.83584900     -1.68410615     -3.59049392      6.18247211      3.54721184     -2.17254845      3.54400899      3.06559679
 Si              7.82870428      4.60398390      0.77047607     -0.00884874      0.13010911      0.09750544      14      -1      -1       0      35     -0.68682846      6.39578296     -2.78258738     -1.92031526     -3.27664508      2.50034636      1.34829407     -2.10199721      1.24655993      1.77587652
 Si              7.74180372      4.57337199      3.15601887      0.10405279     -0.13348505      0.11280057      14       0      -1       0      35     -0.99258773      6.72055702     -3.19089063      1.46179469     -3.14203485      2.14923874     -0.81174762      1.99083196     -1.11188467      1.14199620
 Si              9.62557307      5.59401121      3.99445603     -0.24651645     -0.06076098      0.19324027      14      -1      -1      -1      35     -0.70720276      5.69964203      0.40795969     -3.32396461      0.57877297      0.59754903     -0.31772402     -3.32371397     -0.24878413      2.99902607
 P              -6.86733092      3.92208684     -4.45821074      0.21701032      0.59957344      1.06744793      15       1      -1       1      38     31.21407038    -35.27956984      6.16369848      2.35828321      7.48856376    -30.41404990     -3.85933576      2.18528054     -2.67456004    -28.72071408
 17
 config_type=P_int virial="6.79969047       1.72571375       1.62087461       1.72571375       6.93548364      -0.69353813       1.62087461      -0.69353813      11.07415500" energy=-1.7569198181553110 cutoff=5.00000000 nneightol=1.20000000 pbc="T T T" Lattice="7.74731265       0.00000000       0.00000000       3.86030338       6.75448684       0.00000000       3.90569626       2.22805363       6.39420031" Properties=species:S:1:pos:R:3:force:R:3:Z:I:1:map_shift:I:3:n_neighb:I:1:local_energy:R:1:local_virial:R:9
 Si              2.02902958      1.02017283      0.90942534     -0.24388787      0.16700766      0.01867530      14       0       0       0      32     -3.41436977      3.46619513     -2.50681172     -0.06090499     -2.60686443     -0.10361046      0.17464254      1.06679182     -0.33610922     -0.05047336
 Si              0.00618547      0.03143189      0.00935578     -0.13197012     -0.21931980      0.14760408      14       0       0       0      32     -0.11040087      2.08501247     -0.31415104     -0.88127712      0.23713701      0.26707819      0.06564871     -0.94367804      0.16816676      0.88152964
 Si              2.03096244      1.06393340      3.21612392      0.15816126     -0.09015550      0.03163933      14       0       0      -1      32     -3.33772097      7.31070843     -1.77756334     -4.33991923     -2.76666965      3.54307528      2.29303052     -2.45293764      0.77530842      4.30183716
 Si              3.88235728      2.19964180      4.00534333     -0.17404854      0.42145098      0.37263888      14       0       0      -1      31     -2.95536064      1.18795626     -0.84081771     -0.68947231     -1.62468538      3.42150585      4.48870636     -1.36109119      4.38596977      4.64106172
 Si              1.95475509      3.39875979     -0.00282185      0.11980422      0.25192126      0.14366564      14       0      -1       0      33     -0.01575451      0.29827880      0.20447789     -0.01197952     -0.02257723      0.08195605     -0.20313112      0.08685522     -0.16726244     -0.03764592
 Si              3.93601539      4.37043824      0.79149814     -0.03244594     -0.07735082      0.11652829      14       0      -1       0      35      0.01593942     -0.09780795     -0.05924550     -0.03269778     -0.05564445      0.05660456      0.02527869     -0.01074576     -0.01593853      0.08774799
 Si              3.88887965      4.49427014      3.24612496     -0.07134361      0.04339646     -0.10017957      14       0       0      -1      34      0.01053635     -0.06962802      0.00121297     -0.09264302      0.01112705     -0.04909525      0.02394058     -0.19684023     -0.00566000      0.16060671
 Si              5.73495785      5.51369664      3.99396641     -0.57978388     -0.20282680      0.39913489      14       0      -1      -1      31     -2.45426815      6.37085725      1.89107420     -5.17367101      2.38754002      1.75992074     -2.38235185     -5.36204201     -2.05478804      5.47002240
 Si              3.80378390      0.03629792     -0.13456313     -0.73001881      0.09537555     -2.20946335      14       0       0       0      32     -4.39698120      2.36985578      0.25453174      0.65865545      0.17670309      2.40671514     -0.27689838      2.07841286     -0.13724610      2.53125168
 Si              5.74241700      1.12668966      0.88138768      0.98915701      0.57073702     -0.21446856      14      -1       0       0      31     -4.22917479      3.85347714      3.22065224     -1.71895262      3.38868075      0.97082683     -1.60030002     -0.62089016     -0.66492336      1.66851298
 Si              5.89041314      1.10501761      3.12040655      0.58058045      0.40881100      0.12031271      14      -1       0       0      31     -4.10093279      2.27223057      0.73485007      2.52523237      0.68803677      2.80409168      1.52354943     -0.13272685     -0.21961289      3.63293725
 Si              7.73038012      2.15098301      3.99490230      0.06661277     -0.30885218      0.10462987      14      -1       0      -1      35      0.01025539      1.25865750      0.23377729      0.00785227      0.19701024      1.70867729     -0.11180303      0.01614125     -0.17990682      1.02237495
 Si              5.82537465      3.31392942      0.12622712     -0.40568932      0.04782664      0.32539540      14      -1       0       0      34     -0.02336569      0.60241856      0.33403632     -0.00478856     -0.07414486      0.53842818     -0.21094380     -0.05654170     -0.19135411      0.54045069
 Si              7.79733648      4.63685821      0.81255849      0.09464052     -0.56567892     -0.27194223      14      -1      -1       0      31     -3.90804678     -1.66464853      0.31926134      0.62336971      0.31345782      4.16747192      1.44857192      0.52293548      0.52599990      0.66118573
 Si              7.85974182      4.60567718      3.10529800      0.14805694      0.03133636     -0.02794832      14      -1      -1       0      30     -4.27200533      2.02019497     -0.01449567      0.06887545      1.03293119      4.05068257     -2.59035606     -0.28680054     -0.35576024      3.21633129
 Si              9.68404385      5.59178963      4.02069801      0.42049876     -0.37172141      0.65245512      14      -1      -1      -1      32     -3.20867698      0.56896169     -0.14356640      3.25976760     -0.20973542      1.42717424     -2.32045498      2.62971041     -1.83832661      4.05302844
 P               0.29493015     -6.80140034      2.05719623     -0.20832383     -0.20195749      0.39132251      15       0       1       0      30     34.63340750    -25.03302960      0.18849106      7.48342793      0.65341124    -20.11601915     -1.04066763      6.64432168     -0.38209462    -21.70660435
 17
 config_type=P_int virial="8.11325021       4.23343906       2.32805887       4.23343906      10.75621739      -3.23793694       2.32805887      -3.23793694      14.03747435" energy=-1.0651778434517536 cutoff=5.00000000 nneightol=1.20000000 pbc="T T T" Lattice="7.69007435       0.00000000       0.00000000       3.91576391       6.64744675       0.00000000       3.91890912       2.22964583       6.34168583" Properties=species:S:1:pos:R:3:force:R:3:Z:I:1:map_shift:I:3:n_neighb:I:1:local_energy:R:1:local_virial:R:9
 Si              1.94949729      1.14873724      0.82854044      0.58237246     -0.35860637      0.36689721      14       0       0       0      33     -3.73248301      1.25686977     -0.15084126      4.20459726      0.02251604      1.04337417     -2.24365348      4.30981387     -2.66772417      3.29698032
 Si              0.10704157     -0.03834020      0.02180664     -0.49386886     -0.47571805      0.57669004      14       0       0       0      32     -3.65836570      1.19153935      4.25347186     -1.39505341      4.35170645      2.68002806     -3.27690434     -1.34011105     -3.02702729      3.21385692