 2
 config_type=P_P_dimer energy=-9.0470570005408764 virial="-0.09501835       0.00000000       0.00000000       0.00000000       0.00000000       0.00000000       0.00000000       0.00000000       0.00000000" cutoff=5.00000000 nneightol=1.20000000 pbc="T T T" Lattice="30.00000000       0.00000000       0.00000000       0.00000000      30.00000000       0.00000000       0.00000000       0.00000000      30.00000000" Properties=species:S:1:pos:R:3:force:R:3:Z:I:1:map_shift:I:3:n_neighb:I:1:local_energy:R:1:local_virial:R:9
 P               0.00000000      0.00000000      0.00000000      0.05000966      0.00000000      0.00000000      15       0       0       0       1     -4.52352850     -0.04750918      0.00000000      0.00000000      0.00000000      0.00000000      0.00000000      0.00000000      0.00000000      0.00000000
 P               1.90000000      0.00000000      0.00000000     -0.05000966      0.00000000      0.00000000      15       0       0       0       1     -4.52352850     -0.04750918      0.00000000      0.00000000      0.00000000      0.00000000      0.00000000      0.00000000      0.00000000      0.00000000
 2
 config_type=P_P_dimer energy=-8.9983004692848727 virial="-3.24283045       0.00000000       0.00000000       0.00000000       0.00000000       0.00000000       0.00000000       0.00000000       0.00000000" cutoff=5.00000000 nneightol=1.20000000 pbc="T T T" Lattice="30.00000000       0.00000000       0.00000000       0.00000000      30.00000000       0.00000000       0.00000000       0.00000000      30.00000000" Properties=species:S:1:pos:R:3:force:R:3:Z:I:1:map_shift:I:3:n_neighb:I:1:local_energy:R:1:local_virial:R:9
 P               0.00000000      0.00000000      0.00000000      1.65859053      0.00000000      0.00000000      15       0       0       0       1     -4.49915023     -1.62141523      0.00000000      0.00000000      0.00000000      0.00000000      0.00000000      0.00000000      0.00000000      0.00000000
 P               1.95517241      0.00000000      0.00000000     -1.65859053      0.00000000      0.00000000      15       0       0       0       1     -4.49915023     -1.62141523      0.00000000      0.00000000      0.00000000      0.00000000      0.00000000      0.00000000      0.00000000      0.00000000
 2
 config_type=P_P_dimer energy=-8.8701573748048350 virial="-5.89956750       0.00000000       0.00000000       0.00000000       0.00000000       0.00000000       0.00000000       0.00000000       0.00000000" cutoff=5.00000000 nneightol=1.20000000 pbc="T T T" Lattice="30.00000000       0.00000000       0.00000000       0.00000000      30.00000000       0.00000000       0.00000000       0.00000000      30.00000000" Properties=species:S:1:pos:R:3:force:R:3:Z:I:1:map_shift:I:3:n_neighb:I:1:local_energy:R:1:local_virial:R:9
 P               0.00000000      0.00000000      0.00000000      2.93460475      0.00000000      0.00000000      15       0       0       0       1     -4.43507869     -2.94978375      0.00000000      0.00000000      0.00000000      0.00000000      0.00000000      0.00000000      0.00000000      0.00000000
 P               2.01034483      0.00000000      0.00000000     -2.93460475      0.00000000      0.00000000      15       0       0       0       1     -4.43507869     -2.94978375      0.00000000      0.00000000      0.00000000      0.00000000      0.00000000      0.00000000      0.00000000      0.00000000
 2
 config_type=P_P_dimer energy=-8.6798338118832863 virial="-8.09603294       0.00000000       0.00000000       0.00000000       0.00000000       0.00000000       0.00000000       0.00000000       0.00000000" cutoff=5.00000000 nneightol=1.20000000 pbc="T T T" Lattice="30.00000000       0.00000000       0.00000000       0.00000000      30.00000000       0.00000000       0.00000000       0.00000000      30.00000000" Properties=species:S:1:pos:R:3:force:R:3:Z:I:1:map_shift:I:3:n_neighb:I:1:local_energy:R:1:local_virial:R:9
 P               0.00000000      0.00000000      0.00000000      3.91961528      0.00000000      0.00000000      15       0       0       0       1     -4.33991691     -4.04801647      0.00000000      0.00000000      0.00000000      0.00000000      0.00000000      0.00000000      0.00000000      0.00000000
 P               2.06551724      0.00000000      0.00000000     -3.91961528      0.00000000      0.00000000      15       0       0       0       1     -4.33991691     -4.04801647      0.00000000      0.00000000      0.00000000      0.00000000      0.00000000      0.00000000      0.00000000      0.00000000
 2
 config_type=P_P_dimer energy=-8.4422338280828217 virial="-9.87228723       0.00000000       0.00000000       0.00000000       0.00000000       0.00000000       0.00000000       0.00000000       0.00000000" cutoff=5.00000000 nneightol=1.20000000 pbc="T T T" Lattice="30.00000000       0.00000000       0.00000000       0.00000000      30.00000000       0.00000000       0.00000000       0.00000000      30.00000000" Properties=species:S:1:pos:R:3:force:R:3:Z:I:1:map_shift:I:3:n_neighb:I:1:local_energy:R:1:local_virial:R:9
 P               0.00000000      0.00000000      0.00000000      4.65522486      0.00000000      0.00000000      15       0       0       0       1     -4.22111691     -4.93614362      0.00000000      0.00000000      0.00000000      0.00000000      0.00000000      0.00000000      0.00000000      0.00000000
 P               2.12068966      0.00000000      0.00000000     -4.65522486      0.00000000      0.00000000      15       0       0       0       1     -4.22111691     -4.93614362      0.00000000      0.00000000      0.00000000      0.00000000      0.00000000      0.00000000      0.00000000      0.00000000
 2
 config_type=P_P_dimer energy=-8.1700013454673854 virial="-11.27429957       0.00000000       0.00000000       0.00000000       0.00000000       0.00000000       0.00000000       0.00000000       0.00000000" cutoff=5.00000000 nneightol=1.20000000 pbc="T T T" Lattice="30.00000000       0.00000000       0.00000000       0.00000000      30.00000000       0.00000000       0.00000000       0.00000000      30.00000000" Properties=species:S:1:pos:R:3:force:R:3:Z:I:1:map_shift:I:3:n_neighb:I:1:local_energy:R:1:local_virial:R:9
 P               0.00000000      0.00000000      0.00000000      5.18153229      0.00000000      0.00000000      15       0       0       0       1     -4.08500067     -5.63714979      0.00000000      0.00000000      0.00000000      0.00000000      0.00000000      0.00000000      0.00000000      0.00000000
 P               2.17586207      0.00000000      0.00000000     -5.18153229      0.00000000      0.00000000      15       0       0       0       1     -4.08500067     -5.63714979      0.00000000      0.00000000      0.00000000      0.00000000      0.00000000      0.00000000      0.00000000      0.00000000
 2
 config_type=P_P_dimer energy=-7.8736386547306703 virial="-12.35075473       0.00000000       0.00000000       0.00000000       0.00000000       0.00000000       0.00000000       0.00000000       0.00000000" cutoff=5.00000000 nneightol=1.20000000 pbc="T T T" Lattice="30.00000000       0.00000000       0.00000000       0.00000000      30.00000000       0.00000000       0.00000000       0.00000000      30.00000000" Properties=species:S:1:pos:R:3:force:R:3:Z:I:1:map_shift:I:3:n_neighb:I:1:local_energy:R:1:local_virial:R:9
 P               0.00000000      0.00000000      0.00000000      5.53588698      0.00000000      0.00000000      15       0       0       0       1     -3.93681933     -6.17537737      0.00000000      0.00000000      0.00000000      0.00000000      0.00000000      0.00000000      0.00000000      0.00000000
 P               2.23103448      0.00000000      0.00000000     -5.53588698      0.00000000      0.00000000      15       0       0       0       1     -3.93681933     -6.17537737      0.00000000      0.00000000      0.00000000      0.00000000      0.00000000      0.00000000      0.00000000      0.00000000
 2
 config_type=P_P_dimer energy=-7.5616851663043727 virial="-13.15018902       0.00000000       0.00000000       0.00000000       0.00000000       0.00000000       0.00000000       0.00000000       0.00000000" cutoff=5.00000000 nneightol=1.20000000 pbc="T T T" Lattice="30.00000000       0.00000000       0.00000000       0.00000000      30.00000000       0.00000000       0.00000000       0.00000000      30.00000000" Properties=species:S:1:pos:R:3:force:R:3:Z:I:1:map_shift:I:3:n_neighb:I:1:local_energy:R:1:local_virial:R:9
 P               0.00000000      0.00000000      0.00000000      5.75196804      0.00000000      0.00000000      15       0       0       0       1     -3.78084258     -6.57509451      0.00000000      0.00000000      0.00000000      0.00000000      0.00000000      0.00000000      0.00000000      0.00000000
 P               2.28620690      0.00000000      0.00000000     -5.75196804      0.00000000      0.00000000      15       0       0       0       1     -3.78084258     -6.57509451      0.00000000      0.00000000      0.00000000      0.00000000      0.00000000      0.00000000      0.00000000      0.00000000
 2
 config_type=P_P_dimer energy=-7.2409377809298840 virial="-13.71860576       0.00000000       0.00000000       0.00000000       0.00000000       0.00000000       0.00000000       0.00000000       0.00000000" cutoff=5.00000000 nneightol=1.20000000 pbc="T T T" Lattice="30.00000000       0.00000000       0.00000000       0.00000000      30.00000000       0.00000000       0.00000000       0.00000000      30.00000000" Properties=species:S:1:pos:R:3:force:R:3:Z:I:1:map_shift:I:3:n_neighb:I:1:local_energy:R:1:local_virial:R:9
 P               0.00000000      0.00000000      0.00000000      5.85919834      0.00000000      0.00000000      15       0       0       0       1     -3.62046889     -6.85930288      0.00000000      0.00000000      0.00000000      0.00000000      0.00000000      0.00000000      0.00000000      0.00000000
 P               2.34137931      0.00000000      0.00000000     -5.85919834      0.00000000      0.00000000      15       0       0       0       1     -3.62046889     -6.85930288      0.00000000      0.00000000      0.00000000      0.00000000      0.00000000      0.00000000      0.00000000      0.00000000
 2
 config_type=P_P_dimer energy=-6.9166940756758359 virial="-14.09766956       0.00000000       0.00000000       0.00000000       0.00000000       0.00000000       0.00000000       0.00000000       0.00000000" cutoff=5.00000000 nneightol=1.20000000 pbc="T T T" Lattice="30.00000000       0.00000000       0.00000000       0.00000000      30.00000000       0.00000000       0.00000000       0.00000000      30.00000000" Properties=species:S:1:pos:R:3:force:R:3:Z:I:1:map_shift:I:3:n_neighb:I:1:local_energy:R:1:local_virial:R:9
 P               0.00000000      0.00000000      0.00000000      5.88248083      0.00000000      0.00000000      15       0       0       0       1     -3.45834704     -7.04883478      0.00000000      0.00000000      0.00000000      0.00000000      0.00000000      0.00000000      0.00000000      0.00000000
 P               2.39655172      0.00000000      0.00000000     -5.88248083      0.00000000      0.00000000      15       0       0       0       1     -3.45834704     -7.04883478      0.00000000      0.00000000      0.00000000      0.00000000      0.00000000      0.00000000      0.00000000      0.00000000
 2
 config_type=P_P_dimer energy=-6.5930023428708902 virial="-14.32352544       0.00000000       0.00000000       0.00000000       0.00000000       0.00000000       0.00000000       0.00000000       0.00000000" cutoff=5.00000000 nneightol=1.20000000 pbc="T T T" Lattice="30.00000000       0.00000000       0.00000000       0.00000000      30.00000000       0.00000000       0.00000000       0.00000000      30.00000000" Properties=species:S:1:pos:R:3:force:R:3:Z:I:1:map_shift:I:3:n_neighb:I:1:local_energy:R:1:local_virial:R:9
 P               0.00000000      0.00000000      0.00000000      5.84222556      0.00000000      0.00000000      15       0       0       0       1     -3.29650117     -7.16176272      0.00000000      0.00000000      0.00000000      0.00000000      0.00000000      0.00000000      0.00000000      0.00000000
 P               2.45172414      0.00000000      0.00000000     -5.84222556      0.00000000      0.00000000      15       0       0       0       1     -3.29650117     -7.16176272      0.00000000      0.00000000      0.00000000      0.00000000      0.00000000      0.00000000      0.00000000      0.00000000
 2
 config_type=P_P_dimer energy=-6.2729031496937333 virial="-14.42624178       0.00000000       0.00000000       0.00000000       0.00000000       0.00000000       0.00000000       0.00000000       0.00000000" cutoff=5.00000000 nneightol=1.20000000 pbc="T T T" Lattice="30.00000000       0.00000000       0.00000000       0.00000000      30.00000000       0.00000000       0.00000000       0.00000000      30.00000000" Properties=species:S:1:pos:R:3:force:R:3:Z:I:1:map_shift:I:3:n_neighb:I:1:local_energy:R:1:local_virial:R:9
 P               0.00000000      0.00000000      0.00000000      5.75462190      0.00000000      0.00000000      15       0       0       0       1     -3.13645157     -7.21312089      0.00000000      0.00000000      0.00000000      0.00000000      0.00000000      0.00000000      0.00000000      0.00000000
 P               2.50689655      0.00000000      0.00000000     -5.75462190      0.00000000      0.00000000      15       0       0       0       1     -3.13645157     -7.21312089      0.00000000      0.00000000      0.00000000      0.00000000      0.00000000      0.00000000      0.00000000      0.00000000
 2
 config_type=P_P_dimer energy=-5.9586498116086242 virial="-14.42982600       0.00000000       0.00000000       0.00000000       0.00000000       0.00000000       0.00000000       0.00000000       0.00000000" cutoff=5.00000000 nneightol=1.20000000 pbc="T T T" Lattice="30.00000000       0.00000000       0.00000000       0.00000000      30.00000000       0.00000000       0.00000000       0.00000000      30.00000000" Properties=species:S:1:pos:R:3:force:R:3:Z:I:1:map_shift:I:3:n_neighb:I:1:local_energy:R:1:local_virial:R:9
 P               0.00000000      0.00000000      0.00000000      5.63209897      0.00000000      0.00000000      15       0       0       0       1     -2.97932491     -7.21491300      0.00000000      0.00000000      0.00000000      0.00000000      0.00000000      0.00000000      0.00000000      0.00000000
 P               2.56206897      0.00000000      0.00000000     -5.63209897      0.00000000      0.00000000      15       0       0       0       1     -2.97932491     -7.21491300      0.00000000      0.00000000      0.00000000      0.00000000      0.00000000      0.00000000      0.00000000      0.00000000
 2
 config_type=P_P_dimer energy=-5.6519005846011661 virial="-14.35272063       0.00000000       0.00000000       0.00000000       0.00000000       0.00000000       0.00000000       0.00000000       0.00000000" cutoff=5.00000000 nneightol=1.20000000 pbc="T T T" Lattice="30.00000000       0.00000000       0.00000000       0.00000000      30.00000000       0.00000000       0.00000000       0.00000000      30.00000000" Properties=species:S:1:pos:R:3:force:R:3:Z:I:1:map_shift:I:3:n_neighb:I:1:local_energy:R:1:local_virial:R:9
 P               0.00000000      0.00000000      0.00000000      5.48391170      0.00000000      0.00000000      15       0       0       0       1     -2.82595029     -7.17636032      0.00000000      0.00000000      0.00000000      0.00000000      0.00000000      0.00000000      0.00000000      0.00000000
 P               2.61724138      0.00000000      0.00000000     -5.48391170      0.00000000      0.00000000      15       0       0       0       1     -2.82595029     -7.17636032      0.00000000      0.00000000      0.00000000      0.00000000      0.00000000      0.00000000      0.00000000      0.00000000
 2
 config_type=P_P_dimer energy=-5.3538756633415270 virial="-14.20865878       0.00000000       0.00000000       0.00000000       0.00000000       0.00000000       0.00000000       0.00000000       0.00000000" cutoff=5.00000000 nneightol=1.20000000 pbc="T T T" Lattice="30.00000000       0.00000000       0.00000000       0.00000000      30.00000000       0.00000000       0.00000000       0.00000000      30.00000000" Properties=species:S:1:pos:R:3:force:R:3:Z:I:1:map_shift:I:3:n_neighb:I:1:local_energy:R:1:local_virial:R:9
 P               0.00000000      0.00000000      0.00000000      5.31678845      0.00000000      0.00000000      15       0       0       0       1     -2.67693783     -7.10432939      0.00000000      0.00000000      0.00000000      0.00000000      0.00000000      0.00000000      0.00000000      0.00000000
 P               2.67241379      0.00000000      0.00000000     -5.31678845      0.00000000      0.00000000      15       0       0       0       1     -2.67693783     -7.10432939      0.00000000      0.00000000      0.00000000      0.00000000      0.00000000      0.00000000      0.00000000      0.00000000
 2
 config_type=P_P_dimer energy=-5.0654787183784302 virial="-14.00773883       0.00000000       0.00000000       0.00000000       0.00000000       0.00000000       0.00000000       0.00000000       0.00000000" cutoff=5.00000000 nneightol=1.20000000 pbc="T T T" Lattice="30.00000000       0.00000000       0.00000000       0.00000000      30.00000000       0.00000000       0.00000000       0.00000000      30.00000000" Properties=species:S:1:pos:R:3:force:R:3:Z:I:1:map_shift:I:3:n_neighb:I:1:local_energy:R:1:local_virial:R:9
 P               0.00000000      0.00000000      0.00000000      5.13558060      0.00000000      0.00000000      15       0       0       0       1     -2.53273936     -7.00386941      0.00000000      0.00000000      0.00000000      0.00000000      0.00000000      0.00000000      0.00000000      0.00000000
 P               2.72758621      0.00000000      0.00000000     -5.13558060      0.00000000      0.00000000      15       0       0       0       1     -2.53273936     -7.00386941      0.00000000      0.00000000      0.00000000      0.00000000      0.00000000      0.00000000      0.00000000      0.00000000
 2
 config_type=P_P_dimer energy=-4.7873837325414152 virial="-13.75757450       0.00000000       0.00000000       0.00000000       0.00000000       0.00000000       0.00000000       0.00000000       0.00000000" cutoff=5.00000000 nneightol=1.20000000 pbc="T T T" Lattice="30.00000000       0.00000000       0.00000000       0.00000000      30.00000000       0.00000000       0.00000000       0.00000000      30.00000000" Properties=species:S:1:pos:R:3:force:R:3:Z:I:1:map_shift:I:3:n_neighb:I:1:local_energy:R:1:local_virial:R:9
 P               0.00000000      0.00000000      0.00000000      4.94386196      0.00000000      0.00000000      15       0       0       0       1     -2.39369187     -6.87878725      0.00000000      0.00000000      0.00000000      0.00000000      0.00000000      0.00000000      0.00000000      0.00000000
 P               2.78275862      0.00000000      0.00000000     -4.94386196      0.00000000      0.00000000      15       0       0       0       1     -2.39369187     -6.87878725      0.00000000      0.00000000      0.00000000      0.00000000      0.00000000      0.00000000      0.00000000      0.00000000
 2
 config_type=P_P_dimer energy=-4.5200906656363751 virial="-13.46438447       0.00000000       0.00000000       0.00000000       0.00000000       0.00000000       0.00000000       0.00000000       0.00000000" cutoff=5.00000000 nneightol=1.20000000 pbc="T T T" Lattice="30.00000000       0.00000000       0.00000000       0.00000000      30.00000000       0.00000000       0.00000000       0.00000000      30.00000000" Properties=species:S:1:pos:R:3:force:R:3:Z:I:1:map_shift:I:3:n_neighb:I:1:local_energy:R:1:local_virial:R:9
 P               0.00000000      0.00000000      0.00000000      4.74443682      0.00000000      0.00000000      15       0       0       0       1     -2.26004533     -6.73219224      0.00000000      0.00000000      0.00000000      0.00000000      0.00000000      0.00000000      0.00000000      0.00000000
 P               2.83793103      0.00000000      0.00000000     -4.74443682      0.00000000      0.00000000      15       0       0       0       1     -2.26004533     -6.73219224      0.00000000      0.00000000      0.00000000      0.00000000      0.00000000      0.00000000      0.00000000      0.00000000
 2
 config_type=P_P_dimer energy=-4.2639567341966123 virial="-13.13390769       0.00000000       0.00000000       0.00000000       0.00000000       0.00000000       0.00000000       0.00000000       0.00000000" cutoff=5.00000000 nneightol=1.20000000 pbc="T T T" Lattice="30.00000000       0.00000000       0.00000000       0.00000000      30.00000000       0.00000000       0.00000000       0.00000000      30.00000000" Properties=species:S:1:pos:R:3:force:R:3:Z:I:1:map_shift:I:3:n_neighb:I:1:local_energy:R:1:local_virial:R:9
 P               0.00000000      0.00000000      0.00000000      4.53972971      0.00000000      0.00000000      15       0       0       0       1     -2.13197837     -6.56695384      0.00000000      0.00000000      0.00000000      0.00000000      0.00000000      0.00000000      0.00000000      0.00000000
 P               2.89310345      0.00000000      0.00000000     -4.53972971      0.00000000      0.00000000      15       0       0       0       1     -2.13197837     -6.56695384      0.00000000      0.00000000      0.00000000      0.00000000      0.00000000      0.00000000      0.00000000      0.00000000
 2
 config_type=P_P_dimer energy=-4.0192097552162105 virial="-12.77206031       0.00000000       0.00000000       0.00000000       0.00000000       0.00000000       0.00000000       0.00000000       0.00000000" cutoff=5.00000000 nneightol=1.20000000 pbc="T T T" Lattice="30.00000000       0.00000000       0.00000000       0.00000000      30.00000000       0.00000000       0.00000000       0.00000000      30.00000000" Properties=species:S:1:pos:R:3:force:R:3:Z:I:1:map_shift:I:3:n_neighb:I:1:local_energy:R:1:local_virial:R:9
 P               0.00000000      0.00000000      0.00000000      4.33204385      0.00000000      0.00000000      15       0       0       0       1     -2.00960488     -6.38603016      0.00000000      0.00000000      0.00000000      0.00000000      0.00000000      0.00000000      0.00000000      0.00000000
 P               2.94827586      0.00000000      0.00000000     -4.33204385      0.00000000      0.00000000      15       0       0       0       1     -2.00960488     -6.38603016      0.00000000      0.00000000      0.00000000      0.00000000      0.00000000      0.00000000      0.00000000      0.00000000
 2
 config_type=P_P_dimer energy=-3.7859504142097231 virial="-12.38528674       0.00000000       0.00000000       0.00000000       0.00000000       0.00000000       0.00000000       0.00000000       0.00000000" cutoff=5.00000000 nneightol=1.20000000 pbc="T T T" Lattice="30.00000000       0.00000000       0.00000000       0.00000000      30.00000000       0.00000000       0.00000000       0.00000000      30.00000000" Properties=species:S:1:pos:R:3:force:R:3:Z:I:1:map_shift:I:3:n_neighb:I:1:local_energy:R:1:local_virial:R:9
 P               0.00000000      0.00000000      0.00000000      4.12368903      0.00000000      0.00000000      15       0       0       0       1     -1.89297521     -6.19264337      0.00000000      0.00000000      0.00000000      0.00000000      0.00000000      0.00000000      0.00000000      0.00000000
 P               3.00344828      0.00000000      0.00000000     -4.12368903      0.00000000      0.00000000      15       0       0       0       1     -1.89297521     -6.19264337      0.00000000      0.00000000      0.00000000      0.00000000      0.00000000      0.00000000      0.00000000      0.00000000
 2
 config_type=P_P_dimer energy=-3.5641514295284233 virial="-11.98059914       0.00000000       0.00000000       0.00000000       0.00000000       0.00000000       0.00000000       0.00000000       0.00000000" cutoff=5.00000000 nneightol=1.20000000 pbc="T T T" Lattice="30.00000000       0.00000000       0.00000000       0.00000000      30.00000000       0.00000000       0.00000000       0.00000000      30.00000000" Properties=species:S:1:pos:R:3:force:R:3:Z:I:1:map_shift:I:3:n_neighb:I:1:local_energy:R:1:local_virial:R:9
 P               0.00000000      0.00000000      0.00000000      3.91699408      0.00000000      0.00000000      15       0       0       0       1     -1.78207571     -5.99029957      0.00000000      0.00000000      0.00000000      0.00000000      0.00000000      0.00000000      0.00000000      0.00000000
 P               3.05862069      0.00000000      0.00000000     -3.91699408      0.00000000      0.00000000      15       0       0       0       1     -1.78207571     -5.99029957      0.00000000      0.00000000      0.00000000      0.00000000      0.00000000      0.00000000      0.00000000      0.00000000
 2
 config_type=P_P_dimer energy=-3.3536580450444982 virial="-11.56533533       0.00000000       0.00000000       0.00000000       0.00000000       0.00000000       0.00000000       0.00000000       0.00000000" cutoff=5.00000000 nneightol=1.20000000 pbc="T T T" Lattice="30.00000000       0.00000000       0.00000000       0.00000000      30.00000000       0.00000000       0.00000000       0.00000000      30.00000000" Properties=species:S:1:pos:R:3:force:R:3:Z:I:1:map_shift:I:3:n_neighb:I:1:local_energy:R:1:local_virial:R:9
 P               0.00000000      0.00000000      0.00000000      3.71422730      0.00000000      0.00000000      15       0       0       0       1     -1.67682902     -5.78266767      0.00000000      0.00000000      0.00000000      0.00000000      0.00000000      0.00000000      0.00000000      0.00000000
 P               3.11379310      0.00000000      0.00000000     -3.71422730      0.00000000      0.00000000      15       0       0       0       1     -1.67682902     -5.78266767      0.00000000      0.00000000      0.00000000      0.00000000      0.00000000      0.00000000      0.00000000      0.00000000
 2
 config_type=P_P_dimer energy=-3.1541951357221061 virial="-11.14670204       0.00000000       0.00000000       0.00000000       0.00000000       0.00000000       0.00000000       0.00000000       0.00000000" cutoff=5.00000000 nneightol=1.20000000 pbc="T T T" Lattice="30.00000000       0.00000000       0.00000000       0.00000000      30.00000000       0.00000000       0.00000000       0.00000000      30.00000000" Properties=species:S:1:pos:R:3:force:R:3:Z:I:1:map_shift:I:3:n_neighb:I:1:local_energy:R:1:local_virial:R:9
 P               0.00000000      0.00000000      0.00000000      3.51745766      0.00000000      0.00000000      15       0       0       0       1     -1.57709757     -5.57335102      0.00000000      0.00000000      0.00000000      0.00000000      0.00000000      0.00000000      0.00000000      0.00000000
 P               3.16896552      0.00000000      0.00000000     -3.51745766      0.00000000      0.00000000      15       0       0       0       1     -1.57709757     -5.57335102      0.00000000      0.00000000      0.00000000      0.00000000      0.00000000      0.00000000      0.00000000      0.00000000
 2
 config_type=P_P_dimer energy=-2.9653827819465315 virial="-10.73119362       0.00000000       0.00000000       0.00000000       0.00000000       0.00000000       0.00000000       0.00000000       0.00000000" cutoff=5.00000000 nneightol=1.20000000 pbc="T T T" Lattice="30.00000000       0.00000000       0.00000000       0.00000000      30.00000000       0.00000000       0.00000000       0.00000000      30.00000000" Properties=species:S:1:pos:R:3:force:R:3:Z:I:1:map_shift:I:3:n_neighb:I:1:local_energy:R:1:local_virial:R:9
 P               0.00000000      0.00000000      0.00000000      3.32839161      0.00000000      0.00000000      15       0       0       0       1     -1.48269139     -5.36559681      0.00000000      0.00000000      0.00000000      0.00000000      0.00000000      0.00000000      0.00000000      0.00000000
 P               3.22413793      0.00000000      0.00000000     -3.32839161      0.00000000      0.00000000      15       0       0       0       1     -1.48269139     -5.36559681      0.00000000      0.00000000      0.00000000      0.00000000      0.00000000      0.00000000      0.00000000      0.00000000
 2
 config_type=P_P_dimer energy=-2.7867603935510070 virial="-10.32399124       0.00000000       0.00000000       0.00000000       0.00000000       0.00000000       0.00000000       0.00000000       0.00000000" cutoff=5.00000000 nneightol=1.20000000 pbc="T T T" Lattice="30.00000000       0.00000000       0.00000000       0.00000000      30.00000000       0.00000000       0.00000000       0.00000000      30.00000000" Properties=species:S:1:pos:R:3:force:R:3:Z:I:1:map_shift:I:3:n_neighb:I:1:local_energy:R:1:local_virial:R:9
 P               0.00000000      0.00000000      0.00000000      3.14822026      0.00000000      0.00000000      15       0       0       0       1     -1.39338020     -5.16199562      0.00000000      0.00000000      0.00000000      0.00000000      0.00000000      0.00000000      0.00000000      0.00000000
 P               3.27931034      0.00000000      0.00000000     -3.14822026      0.00000000      0.00000000      15       0       0       0       1     -1.39338020     -5.16199562      0.00000000      0.00000000      0.00000000      0.00000000      0.00000000      0.00000000      0.00000000      0.00000000
 2