 2
 config_type=P_Si_dimer energy=114.41637980593956 virial="413.73047394       0.00000000       0.00000000       0.00000000       0.00000000       0.00000000       0.00000000       0.00000000       0.00000000" cutoff=5.00000000 nneightol=1.20000000 pbc="T T T" Lattice="10.00000000       0.00000000       0.00000000       0.00000000       5.00000000       0.00000000       0.00000000       0.00000000       5.00000000" Properties=species:S:1:pos:R:3:force:R:3:Z:I:1:map_shift:I:3:n_neighb:I:1:local_energy:R:1:local_virial:R:9
 Si              0.00000000      0.00000000      0.00000000   -507.15348647      0.00000000      0.00000000      14       0       0       0       9     42.50635277    216.58751464      0.00000000      0.00000000      0.00000000      0.00000000      0.00000000      0.00000000      0.00000000      0.00000000
 P               0.81578947      0.00000000      0.00000000    507.15348647      0.00000000      0.00000000      15       0       0       0       9     71.91002703    197.14295929      0.00000000      0.00000000      0.00000000      0.00000000      0.00000000      0.00000000      0.00000000      0.00000000
 2
 config_type=P_Si_dimer energy=91.078680287067968 virial="335.70060768       0.00000000       0.00000000       0.00000000       0.00000000       0.00000000       0.00000000       0.00000000       0.00000000" cutoff=5.00000000 nneightol=1.20000000 pbc="T T T" Lattice="10.00000000       0.00000000       0.00000000       0.00000000       5.00000000       0.00000000       0.00000000       0.00000000       5.00000000" Properties=species:S:1:pos:R:3:force:R:3:Z:I:1:map_shift:I:3:n_neighb:I:1:local_energy:R:1:local_virial:R:9
 Si              0.00000000      0.00000000      0.00000000   -386.56433729      0.00000000      0.00000000      14       0       0       0       9     31.45922529    178.01492291      0.00000000      0.00000000      0.00000000      0.00000000      0.00000000      0.00000000      0.00000000      0.00000000
 P               0.86842105      0.00000000      0.00000000    386.56433729      0.00000000      0.00000000      15       0       0       0       9     59.61945499    157.68568477      0.00000000      0.00000000      0.00000000      0.00000000      0.00000000      0.00000000      0.00000000      0.00000000
 2
 config_type=P_Si_dimer energy=73.132257150880051 virial="276.57875857       0.00000000       0.00000000       0.00000000       0.00000000       0.00000000       0.00000000       0.00000000       0.00000000" cutoff=5.00000000 nneightol=1.20000000 pbc="T T T" Lattice="10.00000000       0.00000000       0.00000000       0.00000000       5.00000000       0.00000000       0.00000000       0.00000000       5.00000000" Properties=species:S:1:pos:R:3:force:R:3:Z:I:1:map_shift:I:3:n_neighb:I:1:local_energy:R:1:local_virial:R:9
 Si              0.00000000      0.00000000      0.00000000   -300.28550982      0.00000000      0.00000000      14       0       0       0       9     23.09605417    148.85753084      0.00000000      0.00000000      0.00000000      0.00000000      0.00000000      0.00000000      0.00000000      0.00000000
 P               0.92105263      0.00000000      0.00000000    300.28550982      0.00000000      0.00000000      15       0       0       0       9     50.03620298    127.72122773      0.00000000      0.00000000      0.00000000      0.00000000      0.00000000      0.00000000      0.00000000      0.00000000
 2
 config_type=P_Si_dimer energy=59.041427199195056 virial="232.43904487       0.00000000       0.00000000       0.00000000       0.00000000       0.00000000       0.00000000       0.00000000       0.00000000" cutoff=5.00000000 nneightol=1.20000000 pbc="T T T" Lattice="10.00000000       0.00000000       0.00000000       0.00000000       5.00000000       0.00000000       0.00000000       0.00000000       5.00000000" Properties=species:S:1:pos:R:3:force:R:3:Z:I:1:map_shift:I:3:n_neighb:I:1:local_energy:R:1:local_virial:R:9
 Si              0.00000000      0.00000000      0.00000000   -238.72118135      0.00000000      0.00000000      14       0       0       0       9     16.64810421    127.15119728      0.00000000      0.00000000      0.00000000      0.00000000      0.00000000      0.00000000      0.00000000      0.00000000
 P               0.97368421      0.00000000      0.00000000    238.72118135      0.00000000      0.00000000      15       0       0       0       9     42.39332299    105.28784759      0.00000000      0.00000000      0.00000000      0.00000000      0.00000000      0.00000000      0.00000000      0.00000000
 2
 config_type=P_Si_dimer energy=47.686635379033007 virial="200.24931977       0.00000000       0.00000000       0.00000000       0.00000000       0.00000000       0.00000000       0.00000000       0.00000000" cutoff=5.00000000 nneightol=1.20000000 pbc="T T T" Lattice="10.00000000       0.00000000       0.00000000       0.00000000       5.00000000       0.00000000       0.00000000       0.00000000       5.00000000" Properties=species:S:1:pos:R:3:force:R:3:Z:I:1:map_shift:I:3:n_neighb:I:1:local_energy:R:1:local_virial:R:9
 Si              0.00000000      0.00000000      0.00000000   -195.11472173      0.00000000      0.00000000      14       0       0       0       9     11.55479226    111.37902879      0.00000000      0.00000000      0.00000000      0.00000000      0.00000000      0.00000000      0.00000000      0.00000000
 P               1.02631579      0.00000000      0.00000000    195.11472173      0.00000000      0.00000000      15       0       0       0       9     36.13184312     88.87029098      0.00000000      0.00000000      0.00000000      0.00000000      0.00000000      0.00000000      0.00000000      0.00000000
 2
 config_type=P_Si_dimer energy=38.317014586559061 virial="175.42488624       0.00000000       0.00000000       0.00000000       0.00000000       0.00000000       0.00000000       0.00000000       0.00000000" cutoff=5.00000000 nneightol=1.20000000 pbc="T T T" Lattice="10.00000000       0.00000000       0.00000000       0.00000000       5.00000000       0.00000000       0.00000000       0.00000000       5.00000000" Properties=species:S:1:pos:R:3:force:R:3:Z:I:1:map_shift:I:3:n_neighb:I:1:local_energy:R:1:local_virial:R:9
 Si              0.00000000      0.00000000      0.00000000   -162.58891872      0.00000000      0.00000000      14       0       0       0       9      7.43996825     99.24822654      0.00000000      0.00000000      0.00000000      0.00000000      0.00000000      0.00000000      0.00000000      0.00000000
 P               1.07894737      0.00000000      0.00000000    162.58891872      0.00000000      0.00000000      15       0       0       0       9     30.87704633     76.17665970      0.00000000      0.00000000      0.00000000      0.00000000      0.00000000      0.00000000      0.00000000      0.00000000
 2
 config_type=P_Si_dimer energy=30.411056006548630 virial="157.11180858       0.00000000       0.00000000       0.00000000       0.00000000       0.00000000       0.00000000       0.00000000       0.00000000" cutoff=5.00000000 nneightol=1.20000000 pbc="T T T" Lattice="10.00000000       0.00000000       0.00000000       0.00000000       5.00000000       0.00000000       0.00000000       0.00000000       5.00000000" Properties=species:S:1:pos:R:3:force:R:3:Z:I:1:map_shift:I:3:n_neighb:I:1:local_energy:R:1:local_virial:R:9
 Si              0.00000000      0.00000000      0.00000000   -138.84299331      0.00000000      0.00000000      14       0       0       0       9      4.04225072     90.33172671      0.00000000      0.00000000      0.00000000      0.00000000      0.00000000      0.00000000      0.00000000      0.00000000
 P               1.13157895      0.00000000      0.00000000    138.84299331      0.00000000      0.00000000      15       0       0       0       9     26.36880528     66.78008188      0.00000000      0.00000000      0.00000000      0.00000000      0.00000000      0.00000000      0.00000000      0.00000000
 2
 config_type=P_Si_dimer energy=23.630190125924919 virial="141.45569115       0.00000000       0.00000000       0.00000000       0.00000000       0.00000000       0.00000000       0.00000000       0.00000000" cutoff=5.00000000 nneightol=1.20000000 pbc="T T T" Lattice="10.00000000       0.00000000       0.00000000       0.00000000       5.00000000       0.00000000       0.00000000       0.00000000       5.00000000" Properties=species:S:1:pos:R:3:force:R:3:Z:I:1:map_shift:I:3:n_neighb:I:1:local_energy:R:1:local_virial:R:9
 Si              0.00000000      0.00000000      0.00000000   -119.45147316      0.00000000      0.00000000      14       0       0       0       9      1.19181657     82.70257023      0.00000000      0.00000000      0.00000000      0.00000000      0.00000000      0.00000000      0.00000000      0.00000000
 P               1.18421052      0.00000000      0.00000000    119.45147316      0.00000000      0.00000000      15       0       0       0       9     22.43837356     58.75312092      0.00000000      0.00000000      0.00000000      0.00000000      0.00000000      0.00000000      0.00000000      0.00000000
 2
 config_type=P_Si_dimer energy=17.777833080229488 virial="127.85916886       0.00000000       0.00000000       0.00000000       0.00000000       0.00000000       0.00000000       0.00000000       0.00000000" cutoff=5.00000000 nneightol=1.20000000 pbc="T T T" Lattice="10.00000000       0.00000000       0.00000000       0.00000000       5.00000000       0.00000000       0.00000000       0.00000000       5.00000000" Properties=species:S:1:pos:R:3:force:R:3:Z:I:1:map_shift:I:3:n_neighb:I:1:local_energy:R:1:local_virial:R:9
 Si              0.00000000      0.00000000      0.00000000   -103.37549867      0.00000000      0.00000000      14       0       0       0       9     -1.21007672     76.06262527      0.00000000      0.00000000      0.00000000      0.00000000      0.00000000      0.00000000      0.00000000      0.00000000
 P               1.23684210      0.00000000      0.00000000    103.37549867      0.00000000      0.00000000      15       0       0       0       9     18.98790980     51.79654359      0.00000000      0.00000000      0.00000000      0.00000000      0.00000000      0.00000000      0.00000000      0.00000000
 2
 config_type=P_Si_dimer energy=12.708843212626189 virial="115.52925026       0.00000000       0.00000000       0.00000000       0.00000000       0.00000000       0.00000000       0.00000000       0.00000000" cutoff=5.00000000 nneightol=1.20000000 pbc="T T T" Lattice="10.00000000       0.00000000       0.00000000       0.00000000       5.00000000       0.00000000       0.00000000       0.00000000       5.00000000" Properties=species:S:1:pos:R:3:force:R:3:Z:I:1:map_shift:I:3:n_neighb:I:1:local_energy:R:1:local_virial:R:9
 Si              0.00000000      0.00000000      0.00000000    -89.59411274      0.00000000      0.00000000      14       0       0       0       9     -3.23636548     70.01623279      0.00000000      0.00000000      0.00000000      0.00000000      0.00000000      0.00000000      0.00000000      0.00000000
 P               1.28947368      0.00000000      0.00000000     89.59411274      0.00000000      0.00000000      15       0       0       0       9     15.94520870     45.51301747      0.00000000      0.00000000      0.00000000      0.00000000      0.00000000      0.00000000      0.00000000      0.00000000
 2
 config_type=P_Si_dimer energy=8.3125714881868777 virial="104.38073279       0.00000000       0.00000000       0.00000000       0.00000000       0.00000000       0.00000000       0.00000000       0.00000000" cutoff=5.00000000 nneightol=1.20000000 pbc="T T T" Lattice="10.00000000       0.00000000       0.00000000       0.00000000       5.00000000       0.00000000       0.00000000       0.00000000       5.00000000" Properties=species:S:1:pos:R:3:force:R:3:Z:I:1:map_shift:I:3:n_neighb:I:1:local_energy:R:1:local_virial:R:9
 Si              0.00000000      0.00000000      0.00000000    -77.77387951      0.00000000      0.00000000      14       0       0       0       9     -4.94265708     64.52188661      0.00000000      0.00000000      0.00000000      0.00000000      0.00000000      0.00000000      0.00000000      0.00000000
 P               1.34210526      0.00000000      0.00000000     77.77387951      0.00000000      0.00000000      15       0       0       0       9     13.25522857     39.85884618      0.00000000      0.00000000      0.00000000      0.00000000      0.00000000      0.00000000      0.00000000      0.00000000
 2
 config_type=P_Si_dimer energy=4.4915837461522612 virial="94.41742614       0.00000000       0.00000000       0.00000000       0.00000000       0.00000000       0.00000000       0.00000000       0.00000000" cutoff=5.00000000 nneightol=1.20000000 pbc="T T T" Lattice="10.00000000       0.00000000       0.00000000       0.00000000       5.00000000       0.00000000       0.00000000       0.00000000       5.00000000" Properties=species:S:1:pos:R:3:force:R:3:Z:I:1:map_shift:I:3:n_neighb:I:1:local_energy:R:1:local_virial:R:9
 Si              0.00000000      0.00000000      0.00000000    -67.69551318      0.00000000      0.00000000      14       0       0       0       9     -6.37787215     59.58281595      0.00000000      0.00000000      0.00000000      0.00000000      0.00000000      0.00000000      0.00000000      0.00000000
 P               1.39473684      0.00000000      0.00000000     67.69551318      0.00000000      0.00000000      15       0       0       0       9     10.86945589     34.83461019      0.00000000      0.00000000      0.00000000      0.00000000      0.00000000      0.00000000      0.00000000      0.00000000
 2
 config_type=P_Si_dimer energy=1.1648287759728237 virial="85.14789300       0.00000000       0.00000000       0.00000000       0.00000000       0.00000000       0.00000000       0.00000000       0.00000000" cutoff=5.00000000 nneightol=1.20000000 pbc="T T T" Lattice="10.00000000       0.00000000       0.00000000       0.00000000       5.00000000       0.00000000       0.00000000       0.00000000       5.00000000" Properties=species:S:1:pos:R:3:force:R:3:Z:I:1:map_shift:I:3:n_neighb:I:1:local_energy:R:1:local_virial:R:9
 Si              0.00000000      0.00000000      0.00000000    -58.82945339      0.00000000      0.00000000      14       0       0       0       9     -7.58266439     54.95482598      0.00000000      0.00000000      0.00000000      0.00000000      0.00000000      0.00000000      0.00000000      0.00000000
 P               1.44736842      0.00000000      0.00000000     58.82945339      0.00000000      0.00000000      15       0       0       0       9      8.74749316     30.19306701      0.00000000      0.00000000      0.00000000      0.00000000      0.00000000      0.00000000      0.00000000      0.00000000
 2
 config_type=P_Si_dimer energy=-1.7742595334324205 virial="69.54948209       0.00000000       0.00000000       0.00000000       0.00000000       0.00000000       0.00000000       0.00000000       0.00000000" cutoff=5.00000000 nneightol=1.20000000 pbc="T T T" Lattice="10.00000000       0.00000000       0.00000000       0.00000000       5.00000000       0.00000000       0.00000000       0.00000000       5.00000000" Properties=species:S:1:pos:R:3:force:R:3:Z:I:1:map_shift:I:3:n_neighb:I:1:local_energy:R:1:local_virial:R:9
 Si              0.00000000      0.00000000      0.00000000    -46.36632139      0.00000000      0.00000000      14       0       0       0       9     -8.61037367     47.12828442      0.00000000      0.00000000      0.00000000      0.00000000      0.00000000      0.00000000      0.00000000      0.00000000
 P               1.50000000      0.00000000      0.00000000     46.36632139      0.00000000      0.00000000      15       0       0       0       9      6.83611414     22.42119767      0.00000000      0.00000000      0.00000000      0.00000000      0.00000000      0.00000000      0.00000000      0.00000000
 2
 config_type=P_Si_dimer energy=-4.1744410443729771 virial="23.18184408       0.00000000       0.00000000       0.00000000       0.00000000       0.00000000       0.00000000       0.00000000       0.00000000" cutoff=5.00000000 nneightol=1.20000000 pbc="T T T" Lattice="30.00000000       0.00000000       0.00000000       0.00000000      30.00000000       0.00000000       0.00000000       0.00000000      30.00000000" Properties=species:S:1:pos:R:3:force:R:3:Z:I:1:map_shift:I:3:n_neighb:I:1:local_energy:R:1:local_virial:R:9
 Si              0.00000000      0.00000000      0.00000000    -13.71986693      0.00000000      0.00000000      14       0       0       0       1     -8.35650114     23.59245797      0.00000000      0.00000000      0.00000000      0.00000000      0.00000000      0.00000000      0.00000000      0.00000000
 P               1.68965517      0.00000000      0.00000000     13.71986693      0.00000000      0.00000000      15       0       0       0       1      4.18206010     -0.41061389      0.00000000      0.00000000      0.00000000      0.00000000      0.00000000      0.00000000      0.00000000      0.00000000
 2
 config_type=P_Si_dimer energy=-5.7789574032817450 virial="16.60096631       0.00000000       0.00000000       0.00000000       0.00000000       0.00000000       0.00000000       0.00000000       0.00000000" cutoff=5.00000000 nneightol=1.20000000 pbc="T T T" Lattice="30.00000000       0.00000000       0.00000000       0.00000000      30.00000000       0.00000000       0.00000000       0.00000000      30.00000000" Properties=species:S:1:pos:R:3:force:R:3:Z:I:1:map_shift:I:3:n_neighb:I:1:local_energy:R:1:local_virial:R:9
 Si              0.00000000      0.00000000      0.00000000     -9.08354759      0.00000000      0.00000000      14       0       0       0       1     -8.23398805     19.83707235      0.00000000      0.00000000      0.00000000      0.00000000      0.00000000      0.00000000      0.00000000      0.00000000
 P               1.82758621      0.00000000      0.00000000      9.08354759      0.00000000      0.00000000      15       0       0       0       1      2.45503065     -3.23610604      0.00000000      0.00000000      0.00000000      0.00000000      0.00000000      0.00000000      0.00000000      0.00000000
 2
 config_type=P_Si_dimer energy=-6.6116418297965334 virial="5.80448395       0.00000000       0.00000000       0.00000000       0.00000000       0.00000000       0.00000000       0.00000000       0.00000000" cutoff=5.00000000 nneightol=1.20000000 pbc="T T T" Lattice="30.00000000       0.00000000       0.00000000       0.00000000      30.00000000       0.00000000       0.00000000       0.00000000      30.00000000" Properties=species:S:1:pos:R:3:force:R:3:Z:I:1:map_shift:I:3:n_neighb:I:1:local_energy:R:1:local_virial:R:9
 Si              0.00000000      0.00000000      0.00000000     -2.95315850      0.00000000      0.00000000      14       0       0       0       1     -7.83173908     13.84064622      0.00000000      0.00000000      0.00000000      0.00000000      0.00000000      0.00000000      0.00000000      0.00000000
 P               1.96551724      0.00000000      0.00000000      2.95315850      0.00000000      0.00000000      15       0       0       0       1      1.22009725     -8.03616227      0.00000000      0.00000000      0.00000000      0.00000000      0.00000000      0.00000000      0.00000000      0.00000000
 2
 config_type=P_Si_dimer energy=-6.6332620778507385 virial="-4.94215166       0.00000000       0.00000000       0.00000000       0.00000000       0.00000000       0.00000000       0.00000000       0.00000000" cutoff=5.00000000 nneightol=1.20000000 pbc="T T T" Lattice="30.00000000       0.00000000       0.00000000       0.00000000      30.00000000       0.00000000       0.00000000       0.00000000      30.00000000" Properties=species:S:1:pos:R:3:force:R:3:Z:I:1:map_shift:I:3:n_neighb:I:1:local_energy:R:1:local_virial:R:9
 Si              0.00000000      0.00000000      0.00000000      2.34954751      0.00000000      0.00000000      14       0       0       0       1     -7.12352626      7.77250927      0.00000000      0.00000000      0.00000000      0.00000000      0.00000000      0.00000000      0.00000000      0.00000000
 P               2.10344828      0.00000000      0.00000000     -2.34954751      0.00000000      0.00000000      15       0       0       0       1      0.49026418    -12.71466094      0.00000000      0.00000000      0.00000000      0.00000000      0.00000000      0.00000000      0.00000000      0.00000000
 2
 config_type=P_Si_dimer energy=-6.0666082023721879 virial="-12.22310035       0.00000000       0.00000000       0.00000000       0.00000000       0.00000000       0.00000000       0.00000000       0.00000000" cutoff=5.00000000 nneightol=1.20000000 pbc="T T T" Lattice="30.00000000       0.00000000       0.00000000       0.00000000      30.00000000       0.00000000       0.00000000       0.00000000      30.00000000" Properties=species:S:1:pos:R:3:force:R:3:Z:I:1:map_shift:I:3:n_neighb:I:1:local_energy:R:1:local_virial:R:9
 Si              0.00000000      0.00000000      0.00000000      5.45338324      0.00000000      0.00000000      14       0       0       0       1     -6.21315882      3.37401461      0.00000000      0.00000000      0.00000000      0.00000000      0.00000000      0.00000000      0.00000000      0.00000000
 P               2.24137931      0.00000000      0.00000000     -5.45338324      0.00000000      0.00000000      15       0       0       0       1      0.14655062    -15.59711496      0.00000000      0.00000000      0.00000000      0.00000000      0.00000000      0.00000000      0.00000000      0.00000000
 2
 config_type=P_Si_dimer energy=-5.2374544016943014 virial="-14.81777933       0.00000000       0.00000000       0.00000000       0.00000000       0.00000000       0.00000000       0.00000000       0.00000000" cutoff=5.00000000 nneightol=1.20000000 pbc="T T T" Lattice="30.00000000       0.00000000       0.00000000       0.00000000      30.00000000       0.00000000       0.00000000       0.00000000      30.00000000" Properties=species:S:1:pos:R:3:force:R:3:Z:I:1:map_shift:I:3:n_neighb:I:1:local_energy:R:1:local_virial:R:9
 Si              0.00000000      0.00000000      0.00000000      6.22776234      0.00000000      0.00000000      14       0       0       0       1     -5.25542229      1.28460354      0.00000000      0.00000000      0.00000000      0.00000000      0.00000000      0.00000000      0.00000000      0.00000000
 P               2.37931034      0.00000000      0.00000000     -6.22776234      0.00000000      0.00000000      15       0       0       0       1      0.01796789    -16.10238288      0.00000000      0.00000000      0.00000000      0.00000000      0.00000000      0.00000000      0.00000000      0.00000000
 2
 config_type=P_Si_dimer energy=-4.4197377314862729 virial="-13.75532723       0.00000000       0.00000000       0.00000000       0.00000000       0.00000000       0.00000000       0.00000000       0.00000000" cutoff=5.00000000 nneightol=1.20000000 pbc="T T T" Lattice="30.00000000       0.00000000       0.00000000       0.00000000      30.00000000       0.00000000       0.00000000       0.00000000      30.00000000" Properties=species:S:1:pos:R:3:force:R:3:Z:I:1:map_shift:I:3:n_neighb:I:1:local_energy:R:1:local_virial:R:9
 Si              0.00000000      0.00000000      0.00000000      5.46444506      0.00000000      0.00000000      14       0       0       0       1     -4.37904397      1.01401787      0.00000000      0.00000000      0.00000000      0.00000000      0.00000000      0.00000000      0.00000000      0.00000000
 P               2.51724138      0.00000000      0.00000000     -5.46444506      0.00000000      0.00000000      15       0       0       0       1     -0.04069376    -14.76934510      0.00000000      0.00000000      0.00000000      0.00000000      0.00000000      0.00000000      0.00000000      0.00000000
 2
 config_type=P_Si_dimer energy=-3.7503838611823785 virial="-11.27768595       0.00000000       0.00000000       0.00000000       0.00000000       0.00000000       0.00000000       0.00000000       0.00000000" cutoff=5.00000000 nneightol=1.20000000 pbc="T T T" Lattice="30.00000000       0.00000000       0.00000000       0.00000000      30.00000000       0.00000000       0.00000000       0.00000000      30.00000000" Properties=species:S:1:pos:R:3:force:R:3:Z:I:1:map_shift:I:3:n_neighb:I:1:local_energy:R:1:local_virial:R:9
 Si              0.00000000      0.00000000      0.00000000      4.24744017      0.00000000      0.00000000      14       0       0       0       1     -3.64439863      1.46065314      0.00000000      0.00000000      0.00000000      0.00000000      0.00000000      0.00000000      0.00000000      0.00000000
 P               2.65517241      0.00000000      0.00000000     -4.24744017      0.00000000      0.00000000      15       0       0       0       1     -0.10598523    -12.73833909      0.00000000      0.00000000      0.00000000      0.00000000      0.00000000      0.00000000      0.00000000      0.00000000
 2
 config_type=P_Si_dimer energy=-3.2311546732484904 virial="-9.43397626       0.00000000       0.00000000       0.00000000       0.00000000       0.00000000       0.00000000       0.00000000       0.00000000" cutoff=5.00000000 nneightol=1.20000000 pbc="T T T" Lattice="30.00000000       0.00000000       0.00000000       0.00000000      30.00000000       0.00000000       0.00000000       0.00000000      30.00000000" Properties=species:S:1:pos:R:3:force:R:3:Z:I:1:map_shift:I:3:n_neighb:I:1:local_energy:R:1:local_virial:R:9
 Si              0.00000000      0.00000000      0.00000000      3.37759644      0.00000000      0.00000000      14       0       0       0       1     -3.04464716      1.61460310      0.00000000      0.00000000      0.00000000      0.00000000      0.00000000      0.00000000      0.00000000      0.00000000
 P               2.79310345      0.00000000      0.00000000     -3.37759644      0.00000000      0.00000000      15       0       0       0       1     -0.18650751    -11.04857936      0.00000000      0.00000000      0.00000000      0.00000000      0.00000000      0.00000000      0.00000000      0.00000000
 2
 config_type=P_Si_dimer energy=-2.7904225014794766 virial="-9.10050113       0.00000000       0.00000000       0.00000000       0.00000000       0.00000000       0.00000000       0.00000000       0.00000000" cutoff=5.00000000 nneightol=1.20000000 pbc="T T T" Lattice="30.00000000       0.00000000       0.00000000       0.00000000      30.00000000       0.00000000       0.00000000       0.00000000      30.00000000" Properties=species:S:1:pos:R:3:force:R:3:Z:I:1:map_shift:I:3:n_neighb:I:1:local_energy:R:1:local_virial:R:9
 Si              0.00000000      0.00000000      0.00000000      3.10487686      0.00000000      0.00000000      14       0       0       0       1     -2.53676972      1.04812592      0.00000000      0.00000000      0.00000000      0.00000000      0.00000000      0.00000000      0.00000000      0.00000000
 P               2.93103448      0.00000000      0.00000000     -3.10487686      0.00000000      0.00000000      15       0       0       0       1     -0.25365278    -10.14862705      0.00000000      0.00000000      0.00000000      0.00000000      0.00000000      0.00000000      0.00000000      0.00000000
 2
 config_type=P_Si_dimer energy=-2.3569117297024396 virial="-9.85737872       0.00000000       0.00000000       0.00000000       0.00000000       0.00000000       0.00000000       0.00000000       0.00000000" cutoff=5.00000000 nneightol=1.20000000 pbc="T T T" Lattice="10.00000000       0.00000000       0.00000000       0.00000000      10.00000000       0.00000000       0.00000000       0.00000000      10.00000000" Properties=species:S:1:pos:R:3:force:R:3:Z:I:1:map_shift:I:3:n_neighb:I:1:local_energy:R:1:local_virial:R:9
 Si              0.00000000      0.00000000      0.00000000      3.21195486      0.00000000      0.00000000      14       0       0       0       1     -2.07852354     -0.02206032      0.00000000      0.00000000      0.00000000      0.00000000      0.00000000      0.00000000      0.00000000      0.00000000
 P               3.06896552      0.00000000      0.00000000     -3.21195486      0.00000000      0.00000000      15       0       0       0       1     -0.27838819     -9.83531840      0.00000000      0.00000000      0.00000000      0.00000000      0.00000000      0.00000000      0.00000000      0.00000000
 2
 config_type=P_Si_dimer energy=-1.9050761852708793 virial="-10.60923443       0.00000000       0.00000000       0.00000000       0.00000000       0.00000000       0.00000000       0.00000000       0.00000000" cutoff=5.00000000 nneightol=1.20000000 pbc="T T T" Lattice="10.00000000       0.00000000       0.00000000       0.00000000      10.00000000       0.00000000       0.00000000       0.00000000      10.00000000" Properties=species:S:1:pos:R:3:force:R:3:Z:I:1:map_shift:I:3:n_neighb:I:1:local_energy:R:1:local_virial:R:9
 Si              0.00000000      0.00000000      0.00000000      3.30825590      0.00000000      0.00000000      14       0       0       0       1     -1.65117102     -1.04443867      0.00000000      0.00000000      0.00000000      0.00000000      0.00000000      0.00000000      0.00000000      0.00000000
 P               3.20689655      0.00000000      0.00000000     -3.30825590      0.00000000      0.00000000      15       0       0       0       1     -0.25390517     -9.56479576      0.00000000      0.00000000      0.00000000      0.00000000      0.00000000      0.00000000      0.00000000      0.00000000
 2