 17
 config_type=P_double virial="9.78697888      -3.86921759      -2.31461748      -3.86921759       9.56151321      -0.51354062      -2.31461748      -0.51354062      13.24029969" energy=-9.2687073285820940 cutoff=5.00000000 nneightol=1.20000000 pbc="T T T" Lattice="7.81742706       0.00000000       0.00000000       3.85535924       6.66638994       0.00000000       3.88599570       2.24234268       6.28434974" Properties=species:S:1:pos:R:3:force:R:3:Z:I:1:map_shift:I:3:n_neighb:I:1:local_energy:R:1:local_virial:R:9
 Si             -0.08659670      0.10526624      0.03754270      0.07712949     -0.26793655     -0.07340840      14       0       0       0      33     -5.82876716     17.87465025      6.44336661      0.02693325      7.14328238      4.53753239      0.59672801      1.71831876      1.05607856      4.29229338
 Si              1.90283385      1.09246415      3.12824290      0.31931607      0.22286923      0.27227785      14       0       0       0      35     -5.21881109      2.67875320     -0.71633039     -1.05981250     -0.74543307      2.78794507      0.01458769     -1.37630031      0.07867517     15.30985491
 Si              3.81536497      2.22397065      3.97257490      0.29738462      0.24859358     -0.14242807      14       0       0      -1      35     -1.81563961     10.81441349      4.76852288      4.15567680      5.74571310      4.38975734      2.28421249      5.20695882      2.70759981      5.85280484
 Si              1.96098112      3.38435299     -0.00374663      0.18351313      0.27873793      0.41086986      14       0      -1       0      34     -8.28288261      0.69705306     -1.59509800     -1.29991703     -3.62922928     16.88823886      0.13326646     -1.42828271     -2.50930905      4.42856948
 Si              3.93097658      4.40751133      0.84107093     -0.11022902      0.01587332      0.20795437      14       0      -1       0      35     -0.93448915      1.93273325      2.67528040     -0.08174783      3.72769754      6.57445036      1.00924656      0.73079180      0.83267171      0.65653139
 Si              3.83118647      4.46264675      3.11230968     -0.45246552      0.12410853     -0.18687831      14       0      -1       0      33     -1.48432215     10.19598302     -0.32465835      3.79227904     -1.63973374      1.63004446     -0.83905343      4.38695599     -0.14603306      2.65151794
 Si              5.73650637      5.51079747      3.93966440     -1.44857008      0.79028395     -0.60717011      14       0      -1      -1      35     -5.17974482      0.94359213     -2.80695510     -0.04264514     -5.14273308      4.93781780     -4.45120073      0.88206874     -4.08401688      7.56878342
 Si              3.89667744     -0.02625147     -0.11072413      0.91499816     -0.46716001      0.89633439      14      -1       0       0      32     -9.00809514     10.17279194     -8.01291074      0.75969909     -6.85490881      5.29332354     -1.52476294     -1.61249145     -0.17576815      6.83763431
 Si              5.76575760      1.08619393      0.82454338      0.24708291      0.23682491      0.15855978      14      -1       0       0      37     -1.03640940      5.21460252      0.56008085      2.13656320     -1.51806550     -0.03668474     -0.72312574      1.75661969      0.40948007      2.16315062
 Si              5.84820081      1.17848898      3.18972714     -0.03418746     -0.05351683      0.05722776      14       0       0      -1      35     -2.49198136      3.39054172      2.34179711      1.28479488      4.84220572      5.17739871      2.68697859      3.17033289      3.59034398      2.18695591
 Si              7.91291720      2.24229964      3.89125432      2.39200134     -3.23436580     -1.95875113      14      -1       0      -1      33     -5.13899648      0.67338584     -3.99252457     -3.06716666     -1.95473359      4.49991490      1.32955039     -2.70345445      2.12463729      6.08210235
 Si              5.86891690      3.32448149      0.12984303      0.05669236      0.02816925     -0.00032595      14       0       0       0      36     -0.07981163      1.53869270      0.74465897      0.58820787      0.44983337      1.12847144      0.16884779      0.10958862      0.02247101      0.56291477
 Si              7.81675908      4.50938732      0.75768396     -0.46142331     -0.44141644     -0.01124640      14      -1      -1       0      35     -0.55424330      1.54704543     -2.57258378      0.00673977     -2.50053517      4.30468953     -0.08074044     -0.09208178      0.31596313      0.44311595
 Si              7.76410780      4.42828817      3.08764059      2.07475039      1.24932777     -2.10309686      14      -1       0       0      32     -4.64712364      2.57092997      0.71779633     -4.22408995      0.35285128      3.64634849     -2.89703573     -3.85906254     -3.18615143      5.40896116
 Si              9.70998909      5.54181493      4.00202821     -0.08737765     -0.10590969     -0.00142225      14      -1      -1      -1      35     -0.78369674      6.06192228      3.01846676      0.00035428      2.92965544      2.75944320     -0.11512927     -1.61942161     -1.23459352      0.14123588
 P               1.99370068      1.11013337      0.77667803     -0.92251351      0.23336465      0.39373268      15       0       0       0      33     15.90485471    -32.73468416     -0.22958027     -0.75220854      0.27976561    -35.19476681      0.27543313      1.41173910      0.00205713    -34.29552800
 P               6.64097687      3.62411453      4.69516133     -3.04610193      1.14215220      2.68777080      15       0       0      -1      34     27.31145225    -33.78542776     -4.88854631     -4.53827802     -5.35484980    -23.76241133      1.61865654     -8.99689703     -0.31764641    -17.05059861
 17
 config_type=P_double virial="12.88165555      -3.65730591      -2.53024204      -3.65730591      10.31258375       0.79625668      -2.53024204       0.79625668       8.36470905" energy=-9.6008816084298747 cutoff=5.00000000 nneightol=1.20000000 pbc="T T T" Lattice="7.79246196       0.00000000       0.00000000       3.89628835       6.69490561       0.00000000       3.86020059       2.23226553       6.28813214" Properties=species:S:1:pos:R:3:force:R:3:Z:I:1:map_shift:I:3:n_neighb:I:1:local_energy:R:1:local_virial:R:9
 Si             -0.12114329      0.00731941      0.04598219      0.73580075     -0.32319171      0.68814291      14       0       0       0      33     -7.55920671     10.99804705      2.52050834      5.35457420      3.34172579      4.63301659     -0.97753953      3.67341585     -0.24343841      6.61037415
 Si              1.99601849      1.05870873      3.04595965      0.18291033     -0.66918981      0.70296988      14       0       0       0      33     -8.51125706      1.99681543      0.86313087      0.80318203      2.63515989      6.72068725      2.04068771      1.46184829      3.03687980     15.14349321
 Si              3.89035702      2.26214631      3.89473372      1.39703238     -1.10074665     -0.49366365      14       0       0      -1      33     -5.06897464      3.93046658     -0.05095516      3.54950632      1.43504653      3.80612530      1.03411088      2.36096452      2.37189173      7.11199892
 Si              2.03384192      3.35144613     -0.05546170      0.02312432      0.14615820      0.07931315      14       0      -1       0      35     -4.95248178      0.68953422      0.50364086      0.24566253      0.53370403     12.15609675     -4.43271558      0.23471437     -3.99079303      2.38362240
 Si              3.90322212      4.47235116      0.75980215     -0.07250423     -0.16422112     -0.13108252      14       0      -1       0      36     -0.54445177      2.08819410      2.92287650     -0.34279479      2.60479165      5.09784282     -0.26675859      0.01781796     -0.20282297      0.91704631
 Si              3.73596756      4.41467589      3.10617883      1.14487911      0.64050699     -0.93556123      14       0       0       0      33     -4.32377621      4.59542976      1.34044432     -3.35209818      0.95651146      2.60762233     -1.65596390     -3.27536143     -1.95735497      1.81173124
 Si              5.75310678      5.57678397      3.82005907      0.03659888     -0.02820201      0.13386269      14       0      -1      -1      34     -0.75578210      1.53696032      0.93070352     -0.22032438      0.81676725      3.44421769     -2.98716671     -0.78522734     -3.81192865      4.65590484
 Si              3.78612092      0.01176542     -0.18564810      0.30664089     -0.36149688      0.06360182      14       0       0       0      33     -8.02292981     14.95226349     -2.20661116     -8.82713748     -2.36848408      6.33290027      0.51973716     -8.21552878      0.36837585      7.57633609
 Si              5.86320309      1.15500015      0.74645026     -0.02232075      0.15287451      0.04581585      14      -1       0       0      32     -3.74331554      8.13871453      0.27497997      0.15118957      0.41980594      1.92815836      0.05907197     -2.66297687     -1.15691250      8.06831389
 Si              5.80036911      1.02256444      3.07037118      0.26966299     -0.43619331     -0.13649646      14      -1       0       0      35      0.01956068      2.44688720     -0.08787975     -0.27907741     -0.18721608      0.55871172      0.51463609     -0.21594731      0.49241136      1.64069981
 Si              7.80638264      2.25602687      3.91132834      0.16898575      0.13886259     -0.19471443      14      -1       0      -1      34     -3.90587463      9.03089078      1.87542978     -3.06106239      1.92334193      4.45563062      1.49385473     -0.80760854      2.50611909      5.49581961
 Si              5.80211697      3.30623398      0.01700268     -0.08424173      0.37028360      0.47891568      14       0       0       0      33     -3.22411886     -0.01901156     -0.58284448     -0.92479467     -1.65938098      2.64867213      3.13362052     -1.54602615      1.37498219      4.17938825
 Si              7.80129811      4.56283592      0.71302082      0.08203747     -0.34745705      0.03668040      14      -1      -1       0      35     -0.62950893      2.02822387     -3.30232683      0.12720574     -2.87367945      5.35001152     -0.25888705     -0.16117384      0.34198900      0.19864709
 Si              7.83552386      4.47566905      3.13295101     -0.43245991      0.33778432     -0.27697979      14      -1      -1       0      33     -3.15471466      4.63523436      0.07308381      1.30862593     -1.35867641      0.81734585     -0.50861311      2.72772288     -0.27905454     -0.14755759
 Si              9.57924196      5.63050835      3.89424647     -0.93404554      1.69615761     -0.25968814      14      -1      -1      -1      32     -4.39756730      2.32841710     -0.60748243     -0.25528243     -2.08953931      3.65748204      0.60442110      0.38529999     -0.53028425      2.04792767
 P               2.00520594      1.07724654      0.79646209     -1.06426746      0.17164256     -0.66107970      15       0       0       0      34     15.61454607    -31.82143234     -0.61498391     -0.39705001     -0.80627944    -36.33284888      2.02341498      0.62449955      1.56873066    -32.96999364
 P              -1.66408636     -3.17305199      4.45188318     -1.73783324     -0.22357184      0.85996353      15       0       1      -1      30     33.55897165    -24.67397934     -7.50902016      3.58943337     -6.98090465    -17.56908861      0.46034603      3.65332479      0.90746634    -26.35904321
 17
 config_type=P_double virial="11.94250728      -1.11299796       0.06730209      -1.11299796      16.36238893      -2.23076139       0.06730209      -2.23076139       9.12529348" energy=-10.027978069859751 cutoff=5.00000000 nneightol=1.20000000 pbc="T T T" Lattice="7.77778142       0.00000000       0.00000000       3.87931131       6.74520547       0.00000000       3.85890487       2.22612946       6.39212160" Properties=species:S:1:pos:R:3:force:R:3:Z:I:1:map_shift:I:3:n_neighb:I:1:local_energy:R:1:local_virial:R:9
 Si              0.02104224      0.00592384      0.01896136     -0.15065299      0.46549760      0.34066365      14       0       0       0      31     -7.71929783      9.25670904      5.07263949      3.50065708      4.49665073      5.71575065      5.95795131      3.24410696      3.95223258      7.80846058
 Si              1.90954363      1.12743608      3.17701201     -0.45957480      0.03655332      0.07366743      14       0       0       0      32     -8.36910285      4.74620861     -0.06406811      2.65230209     -1.28894122      1.67786945     -1.13833893      1.66929667      0.20001308     14.19591311
 Si              3.84829648      2.20455511      4.14001901     -0.14122740      2.25992714     -0.00597293      14       0       0      -1      32     -5.26612430      3.91332800      0.24475734      2.28720162      0.42464166      4.09156436      1.26532540      1.77036533      1.03809207      5.91990984
 Si              1.97765425      3.38793111      0.02681196     -0.14752658     -0.29593198      0.16467285      14       0      -1       0      31     -7.70568637      4.24238276      3.06764809     -3.52811725      2.73224149     14.70549374     -6.73341955     -3.02298452     -6.66392902      7.37759829
 Si              3.91521942      4.48490687      0.79513608      0.18195959     -0.06774681     -0.19603648      14       0      -1       0      32     -3.62859943      3.80182323      2.51333975     -0.39783836      2.52604244      7.07565041     -0.38035484     -0.25557107     -1.40574265      9.91729339
 Si              3.84349169      4.52389491      3.15571980      0.15991468      0.19751192     -0.34808872      14       0      -1       0      33      0.03890585      1.74636505      0.03528625     -0.22128343      0.02165546      2.43692845     -0.26555236     -0.25817684     -0.27469643      1.87019489
 Si              5.70637371      5.54712453      3.98066788     -0.31593432     -0.25468925     -0.08645912      14       0      -1      -1      32     -3.94148985      6.10343426      3.11528692     -0.38629250      2.61615293      6.19511287     -3.15722131      0.92902914     -2.15239159      5.78520541
 Si              3.82647333      0.07311004     -0.09605493      0.40355235     -0.14016598     -0.03975976      14       0       0       0      33     -5.39581544     10.28474306     -4.89923834     -4.14598976     -4.99687109      3.91963152      2.38593659     -3.63913445      2.04137065      3.43499786
 Si              5.80901875      1.09522063      0.77608129     -0.09102983     -0.03146954      0.07927479      14      -1       0       0      34     -0.56410061      7.03915034     -0.05882411      0.45326816     -0.21107269      0.20194247      0.51970222      0.24979266      0.41102399     -0.40115257
 Si              5.80347982      1.11528482      3.12649809      0.81143664      0.39684508     -0.73422503      14      -1       0       0      31     -3.83276399      2.80515697      0.78873373     -2.97342780      0.61823081      1.25420328     -1.43318445     -1.49139770     -0.80835585      0.34434073
 Si              7.74924374      2.32217153      4.05165651      0.03694363      0.16733105      0.16590069      14      -1       0      -1      34     -0.44413253      1.97170016     -0.98520554     -2.67270812     -0.99389263      0.75477840      1.50406277     -2.09534908      1.26073743      4.41266078
 Si              5.84104005      3.24237792      0.12003405      0.38697781     -0.47217877      0.56089158      14      -1       0       0      32     -2.46667691      3.72369908     -2.96390464      4.31965395     -2.03195674      3.24137403     -3.28527331      2.58736802     -2.97571752      6.30581928
 Si              7.81725762      4.61992421      0.84032664     -0.00431482      0.00236250      0.21885075      14      -1      -1       0      34     -0.59323044      1.70507817     -3.25342234      0.03248045     -2.66964705      4.81308391     -0.59261630     -0.33849288     -0.18216658     -0.22893476
 Si              7.71556965      4.57617832      3.21862538     -0.05453992     -0.50917878     -0.40079536      14       0      -1      -1      31     -3.31904745      1.01217142     -0.05401861     -0.27344345      1.12895852      4.64060224      2.23751353      0.38715038      1.87872423     -0.59815021
 Si              9.62590134      5.60142670      4.09324675      0.53661445     -0.64851351      0.26452404      14      -1      -1      -1      32     -4.67170097      3.52839213     -1.33712785      0.15798787     -1.31714052      3.29901781     -0.23189087     -0.68919251      0.37772649      2.27249766
 P               1.99047636      1.10267939      0.81873469     -0.62807652      0.46899100     -0.30028977      15       0       0       0      34     15.14813215    -32.24859743      0.43635925      2.20427993      0.41324512    -31.50171483     -0.87816344      2.65619712     -0.76595201    -29.65912656
 P              -7.67318817     -2.08256329     -1.85469730     -0.52452196     -1.57514497      0.24318140      15       1       0       0      30     32.70275289    -21.68923758     -2.77123923     -0.94142841     -2.58129518    -16.15889984      1.99476216     -1.63570512      1.83826976    -29.63223423
 17
 config_type=P_double virial="11.19022837       1.04630514      -1.36617809       1.04630514       9.33888554      -0.12173587      -1.36617809      -0.12173587       6.55095526" energy=-10.213337965226360 cutoff=5.00000000 nneightol=1.20000000 pbc="T T T" Lattice="7.80790015       0.00000000       0.00000000       3.90818538       6.73440800       0.00000000       3.86754292       2.25089138       6.28934891" Properties=species:S:1:pos:R:3:force:R:3:Z:I:1:map_shift:I:3:n_neighb:I:1:local_energy:R:1:local_virial:R:9
 Si             -0.02253804     -0.00113706     -0.05723384     -0.15268991     -0.24505253      0.48617507      14       0       0       0      31     -7.42034407     11.49799641      5.89666778     -1.75521837      5.77038056      4.64428724     -1.08529988      1.40434859      0.37909179      9.21885416
 Si              1.93709754      1.14449700      3.23132205      0.26914562      0.08889795     -0.32244128      14       0       0      -1      36     -4.85323541      2.59520172     -0.58508874     -0.21194844     -0.55712462      3.08408418      0.06994336     -0.66480285      0.45986415     15.18100041
 Si              3.80605993      2.20631256      4.06527372     -2.13759412     -1.26279240      0.96016816      14       0       0      -1      32     -5.13325981      6.14627971      2.40805223     -0.08974900      2.28938230      3.38535919     -0.11965935      2.97469156      1.79744503      6.39840902
 Si              1.99846791      3.39515631     -0.04137827      0.21153991      0.21245217      0.26553439      14       0      -1       0      34     -7.35433108      1.58924904      1.03918175      0.96355691      1.54454429     17.00640615      2.70292629      1.43106618      0.48915994      9.84739060
 Si              3.97261557      4.46025058      0.79053428      0.22918902     -0.13071270      0.21907484      14       0      -1       0      35     -0.81556493      2.86425132      2.39988966      2.62455826      2.45792684      5.79102809     -1.84327802      1.12298624     -0.93142676      3.40705089
 Si              3.88452563      4.44371482      3.01504376     -0.69821318      0.26135402     -1.11853521      14       0       0       0      32     -4.33192742      3.26690923     -1.00775343      2.40661918     -1.05512120      3.03338870     -1.70244213      2.71219050     -1.78751226      0.58343674
 Si              5.85772518      5.64312267      3.88330178      0.41807012      0.95999267      0.13054759      14       0      -1      -1      34     -4.76253270      2.13962364      0.95111354     -0.25185547      1.26728277      8.81883249     -0.76893620     -0.44952103     -4.19607912      6.90589375
 Si              3.90316407      0.02633124     -0.13070208      0.28521889     -0.17228155      0.07666171      14      -1       0       0      32     -7.83400455     13.73086966     -6.28742895      1.43947050     -6.66481013      4.72814306     -0.23811312      0.63840623      0.14659796      8.54680910
 Si              5.82930317      1.10779325      0.80125804     -0.06967957      0.31324207      0.24997207      14      -1       0       0      36     -0.75820325      6.31876658      0.06139822     -0.11184716     -0.23057835      1.35708095      2.64818950     -0.27551456      1.31167887      2.28802711
 Si              5.90809067      1.11986216      3.17465110      0.46952280     -0.68841018     -0.67043248      14      -1       0      -1      33     -3.90923391      1.63423173     -1.05747083     -0.46780484     -0.70557148      4.13182170      2.42356282     -0.46462912      3.71664976      0.27770812
 Si              7.80132711      2.30855075      3.78608798      0.70441386     -0.22457849     -0.11775482      14      -1       0      -1      33     -4.49140785      7.91325037     -1.91286004     -0.72853478     -3.14684933      3.25455266      0.26049271     -3.77910306      1.66823421      6.31752015
 Si              5.83338971      3.40991695      0.04207738      0.01413569      0.06111658      0.03252708      14       0      -1       0      36     -0.28054200      0.54932308      0.10935707     -0.50555409      0.06163062      0.72842462     -0.10840623     -0.67729714     -0.12431645      5.27189112
 Si              7.87053640      4.63504070      0.76497159     -0.20393876     -0.16491080      0.18639789      14      -1      -1       0      34     -0.60089830      1.67719294     -3.16806384     -0.32815285     -2.50669974      4.62557221     -0.45747115     -0.40229687      0.50192075     -0.03253635
 Si              7.75176461      4.60137809      3.13316556      0.57431280      0.51032938     -0.34171718      14       0      -1       0      31     -3.36010658      4.43863276      1.23071738     -0.60621183      1.51641840      3.09352315     -0.94218704     -1.91837386     -1.65164000     -0.92257826
 Si              9.63642659      5.62867676      3.96526640     -0.21304558     -0.05391914      0.55461116      14      -1      -1      -1      34      0.01020004      0.47835992      0.09767863     -0.04584172      0.01432809      0.26397874      0.01372104     -0.14494201     -0.06797043      0.49209468
 P               2.00557589      1.10808043      0.82478292     -0.26826319      0.26410810     -0.40317575      15       0       0       0      33     14.17636149    -33.43439725     -0.50731747     -0.08424814     -0.56535314    -35.11216138      0.32243219      0.60043064     -0.20612112    -44.21016819
 P               5.69898311     -5.64890012     -2.23691011      0.56787559      0.27116484     -0.18761325      15      -1       1       0      32     31.50569237    -22.21551250      1.37823215     -3.61341625      1.55651926    -23.49543621     -1.29721065     -3.47381751     -1.62731220    -23.01984779
 17
 config_type=P_double virial="20.10398841      -2.37182938      -2.28661895      -2.37182938       8.04738088       3.43113132      -2.28661895       3.43113132      19.38035679" energy=-9.0204713408604373 cutoff=5.00000000 nneightol=1.20000000 pbc="T T T" Lattice="7.75783199       0.00000000       0.00000000       3.88316291       6.66705260       0.00000000       3.87531181       2.22276167       6.32656045" Properties=species:S:1:pos:R:3:force:R:3:Z:I:1:map_shift:I:3:n_neighb:I:1:local_energy:R:1:local_virial:R:9
 Si              0.00598606      0.03153929      0.00902982      3.74196074     -1.21613601      3.42734483      14       0       0       0      34     -9.69770860     15.66613005      2.96351920      7.31195428      3.44610260      1.25406113      2.52160001      6.93932718      2.16881694      8.33568034
 Si              2.01580929      1.06117573      3.18231251      0.16083740     -0.78813226     -0.06364149      14       0       0      -1      32     -9.07787213      2.47349538      0.29529100      0.24886139      1.13143251      2.77579002      5.07840074      0.64112915      5.92701099     16.63429860
 Si              3.86719115      2.18561025      3.96257661      4.40954386     -0.08504533     -3.94333428      14       0       0      -1      33     -5.18819430      6.47980382      2.55139542      0.28144804      1.65304251      0.01379542      2.56765868      0.31305474      2.31303032      7.78021674
 Si              1.96647015      3.35460604     -0.00257010      0.04418429     -0.54525410      0.30379235      14       0      -1       0      36     -4.76697748      1.49514548      0.83304087      0.15366480      0.81933268     16.91798749     -6.25632446      0.15824434     -5.83087824      3.81801189
 Si              3.94784407      4.31534107      0.78309470      0.42046248      0.02748444      0.03770060      14       0      -1       0      35     -1.08041226      3.70700544      1.15802152      1.47167767      1.86180727      9.40838654     -2.13321291      1.00329692     -2.34156217      2.15699841
 Si              3.88500524      4.44790765      3.21219214      0.02037135      0.27559023     -0.32868774      14       0       0      -1      33     -1.79481768      1.65296613      3.95757037     -2.52411680      1.69882226      7.49683881     -4.07310404     -1.45888272     -5.42379900      4.53714144
 Si              5.73147448      5.45587594      3.95169278     -0.16708860     -0.40418403     -0.18825859      14       0      -1      -1      36     -0.81706734      0.07638287      0.98831461     -0.35368482      0.39838709      5.65109180     -2.33083499     -0.00177584     -1.54134034      5.34497174
 Si              3.80952379      0.03593204     -0.13380834      0.48430045     -0.41243364      0.17182647      14       0       0       0      33     -8.74354458     15.99559374     -3.53264053     -6.52341919     -2.98266107      2.59386951      2.74760012     -6.99343139      1.93949807      6.32653201
 Si              5.74800422      1.11533298      0.87307609     -0.57933695      1.21584416      1.33870004      14      -1       0       0      34     -4.63259996      7.09962398     -0.05252498     -0.55978619     -0.81898367      0.50682181      4.39291845     -2.26767353      5.42983447      3.56227470
 Si              5.88042572      1.10258713      3.08654712      0.46836551     -0.50234898      0.02619257      14      -1       0       0      35     -0.01522104      4.29703261     -0.78493637     -0.26550733     -0.99687899      0.59987867      0.43339182     -0.37758556      0.48630650      1.07417364
 Si              7.72116061      2.13654072      3.95316418     -0.53767425      0.40299834     -0.28081994      14      -1       0      -1      33     -3.56269249      8.20060401     -2.46483179      0.37089096     -0.96863355     -0.35476340      2.11406633      1.08043284      1.57732109      7.36108014
 Si              5.84162719      3.27087922      0.12556182     -0.23877943      0.40570164      0.02401967      14      -1       0       0      33     -1.64054741      1.37164545     -1.75323637     -0.59786301     -1.58188832     11.43228105      1.85477165     -0.66282383      3.35420363      1.63146710
 Si              7.81488625      4.58059407      0.80449615     -0.13642614     -0.14917914      0.13820737      14      -1      -1       0      35     -1.22690570      3.76091650     -1.11760639     -1.70272013     -1.36947321      7.05268444     -2.03569313     -1.76322297     -1.36540484      1.21262891
 Si              7.86152885      4.55883821      3.07182506     -0.03274998      0.15867066      0.07923643      14      -1      -1       0      36     -0.79508067      2.94314865     -2.88613626      2.08053537     -2.61027307      2.91581096     -1.82535127      1.69575534     -1.72792064      2.25126453
 Si              9.68553598      5.53400963      3.97794434     -0.02569853     -0.24945283      0.08820263      14      -1      -1      -1      36     -1.16931770      1.19016248      0.19217806     -0.25141284     -1.86455447     11.45626745     -3.61255577      0.48114301     -3.41119938      3.18279486
 P               2.02916574      1.00917850      0.90067267     -1.06468284      0.97280015     -1.29568224      15       0       0       0      36     15.55546321    -30.05260339     -0.03492470      1.19249090     -0.56010572    -33.45944442      1.69459782      2.33867486      0.92677119    -30.52213634
 P              -1.57425802     -4.17115982      5.10544925     -6.96758936      0.89307671      0.46520133      15       0       1      -1      36     29.63302481    -26.25306478     -2.68432306     -2.61963205      0.37269576    -38.21397643      2.29320226     -3.41228147      0.95044275    -25.30704191
 17
 config_type=P_double virial="13.05113870      -2.00856163      -1.84942923      -2.00856163      22.11946084      -0.58211176      -1.84942923      -0.58211176       6.48243472" energy=-9.2715608105915681 cutoff=5.00000000 nneightol=1.20000000 pbc="T T T" Lattice="7.79701321       0.00000000       0.00000000       3.85640210       6.74417412       0.00000000       3.90939061       2.22514784       6.31979906" Properties=species:S:1:pos:R:3:force:R:3:Z:I:1:map_shift:I:3:n_neighb:I:1:local_energy:R:1:local_virial:R:9
 Si              0.10690050     -0.03850890      0.02170117     -0.40839124     -0.07907042     -0.24512340      14       0       0       0      34     -5.28367433      9.04054142      5.85300933      3.41850138      5.37679199      4.40236093      2.26421873      2.96800015      2.56903048      2.03167205
 Si              1.98953862      1.02224257      3.19849892      1.50082454     -5.31556664     -0.18623265      14       0       0      -1      33    -10.34655747      5.30603877     -1.32306908     -0.04573180     -1.97255829      9.68965741      4.19311892      1.14042479     -2.71989035     11.81086895