 15
 config_type=P_vac virial="3.23008792       0.16051143      -0.50431864       0.16051143       1.51194905      -0.50474205      -0.50431864      -0.50474205       4.00028515" energy=-7.1268501134765900 cutoff=5.00000000 nneightol=1.20000000 pbc="T T T" Lattice="7.56311614      -0.13901802      -0.10303045       3.76951288       6.57567351      -0.17962856       3.72835779       2.11623311       6.19775491" Properties=species:S:1:pos:R:3:force:R:3:Z:I:1:map_shift:I:3:n_neighb:I:1:local_energy:R:1:local_virial:R:9
 Si              1.68248442      0.89963462      2.97878433     -0.24750484     -0.17042730     -0.07187576      14       0       0       0      32     -0.84304173      2.14321752      1.31263699      3.49873583      1.39935857      0.52107616      1.94905723      4.71487655      2.61975304      7.35236416
 Si              3.55687954      1.94531597      3.83400222     -0.06646120      0.08075931     -0.88794193      14       0       0      -1      31     -5.88167279      1.76691522      0.44683971      0.65645085      0.42896315      1.62115625      0.13024073      0.31741124      1.50679578     16.62885504
 Si              1.73731732      3.25463498     -0.18858053     -0.21464469     -0.26055541     -0.00909776      14       0       0       0      32     -0.62687817      2.10922392      3.15212609      0.17295142      5.00761174      7.69189635     -0.02235273     -0.30010103     -0.73542855     -0.20856416
 Si              3.64323202      4.17046607      0.48884146     -0.08938138      0.57608851     -0.02887540      14       0      -1       0      32     -4.41624279      1.27219571      0.77868032      0.05429794      0.69482457     12.35250699     -2.92795649      0.09759491     -3.62771946      1.36522533
 Si              3.66470477      4.16680672      2.99480108      0.07551653      0.28740640     -0.19371441      14       0       0       0      29     -0.68105083     -0.16173656      0.21426198     -0.13317291      0.15319309      2.29529254     -2.58102868     -0.16220885     -3.84512916      4.94977792
 Si              5.42308920      5.36195530      3.56462445      0.06283039     -0.04856595     -0.12915958      14       0      -1      -1      30      0.00161684      0.36954627      0.34946003      0.21429134      0.36376507      0.96054202     -0.26810673      0.20025897     -0.28228342      1.18269247
 Si              3.66259193     -0.16326345     -0.16923490     -0.30219433     -0.20831033     -0.07958843      14       0       0       0      31     -0.72838654     11.02517884      0.20927455      0.27593468     -1.21463588     -0.24369779      0.15302538     -0.83699441      0.07761152     -0.22924795
 Si              5.46471383      0.84780168      0.63892005      0.00080581      0.03203242     -0.16461187      14      -1       0       0      30     -5.21277023     10.92554127     -3.65230623     -3.61580688     -4.44920249      3.67440769      2.25540183     -3.76396176      1.95902140      3.21274320
 Si              5.63040805      0.93351546      2.89901533      0.09776845      0.03908074      0.35657081      14      -1       0       0      30     -0.63814000      2.62159550     -1.59488379     -3.97341766     -1.43249386      0.81902367      2.29831907     -2.99892789      1.90644601      5.79418735
 Si              7.38346314      1.94201653      3.55839470      0.02856497      0.04594145     -0.02578598      14      -1       0      -1      32     -0.03753454      0.95823582     -0.14111236     -0.09003866     -0.09749607      0.46818974      0.74944091      0.01890769      0.76619881      1.67670895
 Si              5.70066802      3.02978523     -0.11127266     -0.06343533      0.46083884     -0.04015556      14      -1       0       0      30     -0.80039987      1.78095342     -3.71690367     -0.01829764     -2.40172219      5.67434106     -0.35573439     -0.41581438      0.56987099     -0.17324218
 Si              7.57994062      4.28647969      0.38355041      0.00086751     -0.00934053      0.08259526      14      -1      -1       0      31     -0.08791455      2.09664773      0.86717427     -0.31837472      0.86466185      1.65465397     -0.16557274     -0.54007260     -0.28094796      0.13804892
 Si              7.50656211      4.20897563      2.83950529      0.08075359      0.01418036     -0.01713666      14      -1       0       0      29      0.00000000     -0.11975798     -0.02113203     -0.02168078     -0.02005159     -0.20622938     -0.06163478     -0.02587340     -0.04824303     -0.08165639
 Si              9.29547624      5.15890593      3.60977090     -0.10950195      0.09702789     -0.11103382      14      -1      -1      -1      28     -0.00936208      0.45454593     -0.54582811      0.15854958     -0.47196862      0.96150911     -0.49862628      0.13974913     -0.51487730      0.79716954
 P              -0.18585601     -0.00031096     -0.14610667      0.74601647     -0.93615640      1.31981109      15       0       0       0      31     12.83492717    -34.01221468      2.50222367      2.63525897      1.33570408    -36.73271932     -1.15921439      3.05083718     -0.57581072    -38.40477704
 15
 config_type=P_vac virial="2.10224924       1.39780214       0.90167572       1.39780214       1.18236428       0.37114704       0.90167572       0.37114704       0.57467360" energy=-8.0194191538437423 cutoff=5.00000000 nneightol=1.20000000 pbc="T T T" Lattice="7.66002767      -0.15172593      -0.16564485       3.76497175       6.59058601      -0.12023145       3.70314827       2.09535347       6.18896393" Properties=species:S:1:pos:R:3:force:R:3:Z:I:1:map_shift:I:3:n_neighb:I:1:local_energy:R:1:local_virial:R:9
 Si              1.75827441      0.97359057      0.74893044      1.43704091      0.66935821      0.45321488      14       0       0       0      31     -5.95482586      9.42681171      6.11409970      3.63331238      5.75843925      4.23747755      2.38477330      4.40728128      3.00951041      3.00783194
 Si              1.69562418      0.94362794      3.07469628     -0.02154013      0.01703215      0.14631271      14       0       0       0      30     -0.93897524      2.18596924      1.26826505      3.83688347      1.25541645      0.44210701      2.08095801      3.75756117      1.89787685      7.11226543
 Si              3.71348560      2.05611357      3.72311619     -0.05299459     -0.20603119      0.18453025      14       0       0      -1      28     -4.71960840      0.86452949      0.17943174      0.51091878      0.17820532      1.37049787     -0.73085425      0.39295541     -0.90823278     13.83512840
 Si              1.87361788      3.32005313     -0.13308471     -0.27089716     -0.21411837     -0.10165718      14       0      -1       0      31     -0.87223184      2.17743180      3.60399642      0.15667434      4.77652888      7.14362162      0.01509892     -0.13578632     -0.51208514     -0.16087347
 Si              3.79871986      4.28191407      0.61766048     -0.09921168     -0.58056029      0.15759548      14       0      -1       0      31     -5.36139207      1.39564830      0.34804049     -0.12949488     -0.16778148     12.99275269     -3.57317778      0.03849354     -3.67358729      2.41639893
 Si              3.67419572      4.20431490      2.96893518      0.02777870      0.22774101      0.09718825      14       0       0       0      29     -0.47359412     -0.11561313      0.04274907     -0.05365600      0.05637534      1.97785180     -2.74974776     -0.02899377     -2.59534760      4.13511585
 Si              5.55033320      5.22272536      3.72390005      0.07805359     -0.03478519      0.01660119      14       0      -1      -1      30     -0.00104931      0.38177506      0.18681631      0.24523041      0.19284379      0.64887861     -0.23163739      0.26629400     -0.18118518      0.86235690
 Si              3.80132027     -0.25348406     -0.34428340     -0.34929529      0.01536865     -0.02090280      14      -1       0       0      31     -0.67826104      8.13625070     -0.27652868     -0.27445577     -0.84092835     -0.01698092      0.06511754     -0.37406451      0.18095952     -0.09793437
 Si              5.57597546      0.90545454      0.50397321      0.17907171     -0.16978117      0.03860974      14      -1       0       0      30     -4.73152364     10.40226358     -5.41179000     -2.63712584     -5.01404364      4.53668598      1.52711161     -3.10741951      1.92158885      2.38258932
 Si              5.62516335      0.81448141      2.85088608      0.04797210     -0.00525264      0.17100249      14      -1       0       0      29     -0.47976803      1.42834399     -0.98000166     -2.71438978     -1.01439851      0.41389637      1.68390115     -1.80711969      1.18833519      3.53432593
 Si              7.48350676      1.96011257      3.67829432      0.05195557      0.06262052      0.00975566      14      -1       0      -1      31      0.00604187      0.66078973     -0.02230571     -0.04233392     -0.00181949      0.24642107      0.32289105      0.02029709      0.30155486      0.73733652
 Si              5.65200739      3.16175440     -0.18916104      0.16201765      0.06340867     -0.09277787      14       0       0       0      32     -0.47151968      1.62055905     -2.30251579     -0.21113002     -2.40706094      3.93613620      0.10816892     -0.13645911     -0.11239082     -0.08888554
 Si              7.38239337      4.27770084      2.80204491     -0.03548883      0.04270697     -0.02205892      14       0      -1       0      31      0.00000000      0.03542718     -0.00731426      0.03035414     -0.01681780     -0.14596564      0.01375971      0.02511960      0.01847937      0.07059576
 Si              9.33434089      5.26714180      3.67296031     -0.04943654     -0.02087970      0.02057377      14      -1      -1      -1      31      0.01852969      0.32442512     -0.19361080     -0.29250173     -0.23062983      0.48394403     -0.01273312     -0.27298711     -0.00880516      0.61529333
 P              -0.01948462     -0.11562480      0.01408300     -1.10502601      0.13317238     -1.05798764      15       0       0       0      29     16.63875852    -36.82236259     -1.15152973     -1.15660988     -1.12652686    -37.08495995     -0.53248287     -2.14349634     -0.15552405    -37.78687132
 15
 config_type=P_vac virial="-0.46127321       1.31035073      -0.18138262       1.31035073      -0.03020423      -0.36812372      -0.18138262      -0.36812372       2.12598283" energy=-7.8900569244664114 cutoff=5.00000000 nneightol=1.20000000 pbc="T T T" Lattice="7.59045304      -0.10554826      -0.12469163       3.70728535       6.55629254      -0.17470791       3.71672407       2.13243054       6.21745183" Properties=species:S:1:pos:R:3:force:R:3:Z:I:1:map_shift:I:3:n_neighb:I:1:local_energy:R:1:local_virial:R:9
 Si              1.84201921      0.89784043      0.73789888      0.34109450      0.27593950      0.24929853      14       0       0       0      29     -5.44763226      9.50919912      4.35155011      3.18939226      4.77843765      3.90967603      1.90060026      3.56358167      1.91434722      2.88561347
 Si              1.69944423      0.95172001      2.91839133     -0.05375844     -0.01991715      0.33269443      14       0       0       0      28     -0.88346951      2.01668235      1.38786925      4.00695633      1.25328136      0.46596825      2.29025858      3.46539334      2.09588334      6.97609524
 Si              3.64746865      2.10749402      3.81904034      0.07882726     -0.25239984     -0.50137605      14       0       0      -1      30     -5.41356246      0.57348267      0.07075925      0.63804546      0.07920714      0.45062812     -0.44849124      0.59620856     -0.55314975     14.34016460
 Si              1.73389043      3.13010905     -0.16695779     -0.13572539      0.09219674     -0.10656121      14       0       0       0      31     -0.83182793      2.29391927      4.58597087      0.01520971      4.02478640      7.93340640     -0.37988566      0.10078162     -0.16413303      0.09101197
 Si              3.58042896      4.18297653      0.50662149      0.26526379     -0.03957837     -0.08870885      14       0      -1       0      31     -5.15193260      0.68981329      2.57170341     -0.35422322      1.54686288     11.96136718     -3.69073498     -0.03173806     -4.27348683      2.97691634
 Si              3.53186480      4.29479653      2.84507003     -0.04833602      0.13100794      0.25632785      14       0      -1       0      31     -0.52631705     -0.16378361      0.07591022     -0.20314541     -0.07757321      2.16110674     -3.24190647      0.16097389     -2.54988019      4.17384972
 Si              5.46826074      5.32177125      3.61118847      0.06693150      0.01529119     -0.02237190      14       0      -1      -1      31     -0.00935906      0.33377734      0.16276599      0.33027280      0.15728036      0.55290491     -0.23170608      0.33203101     -0.22772766      0.99702884
 Si              3.74313988     -0.13786955     -0.17376591     -0.15265349     -0.17826826     -0.14958833      14      -1       0       0      31     -0.62149425      8.58250565     -0.29907990     -0.34825318     -0.14603969     -0.00332789      0.16790645     -0.29824275      0.20421426     -0.10704443
 Si              5.47101152      1.00043766      0.57271786      0.87512872     -0.28389633     -0.22506563      14      -1       0       0      33     -4.44124525     10.70892368     -4.69836383     -2.98512784     -3.85470868      2.78386482      1.65657755     -3.66090432      2.36107122      2.97140885
 Si              5.64104826      0.86123949      2.87698433     -0.04868740      0.02248725      0.20381705      14      -1       0       0      31     -0.51736759      1.86781565     -1.30468820     -3.42812692     -1.10524620      0.56293503      1.76244351     -2.73778086      1.69889779      4.87732968
 Si              7.49260543      1.93883800      3.69244049      0.03801959      0.07077756     -0.06221957      14      -1       0      -1      29     -0.00262428      0.73720148     -0.01365832      0.10919256     -0.01833532      0.21715384      0.34406443      0.11437874      0.34888633      0.97083759
 Si              7.50678803      4.24250170      0.40129309     -0.02105624     -0.03053161      0.08875862      14      -1      -1       0      32     -0.01556321      1.36521236      0.32044812     -0.16366952      0.30709080      0.99888370     -0.09884406     -0.21354862     -0.14597354      0.07864761
 Si              7.46982188      4.24475026      2.88044248      0.01901805      0.02710029     -0.00683760      14      -1       0       0      32      0.00000000     -0.05488048      0.00254165     -0.07271889      0.00539434     -0.07273699     -0.00068257     -0.06894890      0.00177936     -0.06081768
 Si              9.17748417      5.29267678      3.68930617     -0.06858608      0.00628415      0.01350377      14      -1      -1      -1      31      0.00688897      0.24544809     -0.23217529     -0.10327374     -0.31842965      0.56573845      0.08980095     -0.10565746      0.09367335      0.48083819
 P              -0.04088901     -0.11599189     -0.06677213     -1.15548035      0.16350693      0.01832889      15       0       0       0      32     15.96544954    -39.16659006     -5.67120261     -0.81191303     -5.32165743    -32.51777281     -0.48752439     -1.39791048     -1.17252558    -39.52589716
 15
 config_type=P_vac virial="3.43532693       0.24561803      -1.82686296       0.24561803       1.91295817       0.57457776      -1.82686296       0.57457776       3.95863743" energy=-7.3241334958993614 cutoff=5.00000000 nneightol=1.20000000 pbc="T T T" Lattice="7.65159903      -0.18377826      -0.17664566       3.72893338       6.58591921      -0.10302407       3.75678522       2.12445696       6.23225983" Properties=species:S:1:pos:R:3:force:R:3:Z:I:1:map_shift:I:3:n_neighb:I:1:local_energy:R:1:local_virial:R:9
 Si              1.81550428      0.88776682      0.69447797      0.31737937      0.51302093      0.08487255      14       0       0       0      31     -5.57972047     13.02959322      4.36985823      3.99070419      5.40365138      3.22540479      2.25693928      4.13848998      1.88923533      3.08202985
 Si              1.79063448      0.87603196      3.00323167     -0.13774776     -0.12971617      0.22129103      14       0       0       0      30     -0.76354240      2.54353996      1.52821488      3.92050954      1.71625202      0.97365512      2.33943697      3.78872008      2.24097588      6.67012455
 Si              3.57911000      1.97614992      3.85629223      0.05971237      0.13187160     -0.74175754      14       0       0      -1      29     -5.73873001      1.67713119      0.17998185      0.32126387      0.10321708      1.52610794      0.46174525     -0.53460994      1.50212800     16.16659682
 Si              1.83238389      3.25349789     -0.10303162     -0.08888246     -0.15046682      0.00110807      14       0       0       0      30     -0.85967479      2.36823272      4.16066466      0.13617012      4.57709391      8.16658705     -0.07284862     -0.00461900     -0.30072668     -0.14383713
 Si              3.76728257      4.31630501      0.68529213     -0.15506169     -0.03898273     -0.12744399      14       0      -1       0      30     -4.94140173      0.76700405      0.31304019     -0.27198001     -1.56806944     12.95259631     -4.71760312      0.50799084     -4.89561834      2.32360584
 Si              3.65883051      4.26186352      3.06715886      0.00588026      0.22200168     -0.00148567      14       0       0      -1      30     -0.66045997     -0.14215789      0.03861069      0.03808019      0.07535337      2.45501141     -2.74126620     -0.05953338     -3.68126513      4.76500243
 Si              5.48490289      5.24413937      3.67799071      0.06089150      0.01112569     -0.17236697      14       0      -1      -1      28     -0.00465568      0.38926515      0.39572975     -0.02388175      0.42319160      0.84035603     -0.44285202     -0.04169220     -0.53347162      0.94757137
 Si              3.65384095     -0.09459839     -0.19252759      0.15783188     -0.09701535     -0.08729089      14       0       0       0      32     -0.62291397      9.55520664     -0.63509122     -0.70096540      0.35210492     -0.01854487      0.09626535      0.12685008      0.09097976     -0.18311859
 Si              5.58799416      0.95371595      2.94266986      0.02829010      0.01689226      0.13982094      14       0       0       0      32     -0.48473773      1.57692033     -0.98338642     -2.56613549     -1.01419676      0.41483420      1.54363081     -3.36002703      1.95012549      4.74448426
 Si              7.60224729      1.90456232      3.61378990      0.14463026      0.03346721     -0.02098220      14      -1       0      -1      30     -0.02204771      0.74455909     -0.01697484      0.30228311     -0.04259775      0.21011068      0.32263143      0.31198067      0.33687735      0.98279834
 Si              5.64429089      2.99307513     -0.14630267      0.11988669     -0.04082392     -0.02249858      14      -1       0       0      32     -0.57132198      1.68582429     -2.94488169     -0.20102043     -3.13089294      4.95495889      0.26319273     -0.12178619      0.11998770     -0.25598812
 Si              7.59643094      4.25034871      0.54880776      0.06413793      0.09152656      0.09636250      14      -1      -1       0      29     -0.02202918      0.94317208      0.45174195     -0.23169740      0.56496538      1.12665547     -0.06759838     -0.33688308     -0.05279275      0.11376744
 Si              7.52559039      4.10460300      2.86494758      0.00175364     -0.04254478     -0.00394407      14      -1       0       0      29      0.00000000     -0.08223881     -0.01557693     -0.06988670     -0.00910610      0.03839622     -0.00201594     -0.07153149     -0.00220549      0.00589201
 Si              9.36232328      5.20772363      3.74933893     -0.03922205     -0.06769920      0.00991255      14      -1      -1      -1      31     -0.00615544      0.42644776     -0.48341560      0.06207923     -0.48762512      0.94463880     -0.36288918      0.07332276     -0.39399918      0.82499576
 P              -0.12392301     -0.01493505     -0.12432522     -0.53948004     -0.45265696      0.62440227      15       0       0       0      31     12.95325758    -32.04717285     -6.11289745     -6.53238604     -6.71772352    -35.89780987      1.69780941     -6.24353508      2.30434741    -36.08528741
 15
 config_type=P_vac virial="0.93672796       0.76514069      -0.08400179       0.76514069      -0.20122317      -0.01643742      -0.08400179      -0.01643742      -0.06997498" energy=-7.9932982472545673 cutoff=5.00000000 nneightol=1.20000000 pbc="T T T" Lattice="7.61805436      -0.19979767      -0.11753905       3.78045361       6.59831340      -0.16141200       3.69813979       2.13685687       6.19679335" Properties=species:S:1:pos:R:3:force:R:3:Z:I:1:map_shift:I:3:n_neighb:I:1:local_energy:R:1:local_virial:R:9
 Si              1.89924125      0.93954331      0.60879344      0.38275688      0.36725388      0.30305126      14       0       0       0      30     -5.57040595     10.59775698      4.46767122      2.61123483      5.03567439      3.71266118      1.84276910      3.23308423      1.97625333      2.20585507
 Si              1.73190560      0.98096027      3.09769823     -0.13698524     -0.03709257     -0.02239582      14       0       0       0      28     -0.90240527      2.27501306      1.40548144      3.99894400      1.39097836      0.45270566      2.02547078      4.04692968      2.06038550      6.69511559
 Si              3.60327925      1.96276297      3.78777082     -0.03018681      0.03830077      0.01673179      14       0       0      -1      28     -5.06821160      1.31296958      0.03712298      0.53566696      0.01129712      1.36184355      0.29455360      0.28526577      0.56310205     13.84794699
 Si              1.80344353      3.29779528     -0.13260051     -0.12262188     -0.05886378     -0.00531215      14       0      -1       0      30     -0.78076205      2.21835117      3.85942657      0.09341100      3.98020279      7.04114319     -0.10023721     -0.10770586     -0.42570860     -0.15362789
 Si              3.80244308      4.26258024      0.61071487      0.11782122      0.01223156     -0.20155641      14       0      -1       0      31     -5.04097457      0.53017967      1.89166396     -0.21573640      0.68332962     11.34203273     -3.84810799      0.23838331     -4.44597403      2.40299548
 Si              3.51613146      4.19651901      3.00074218     -0.03353816      0.14095658      0.04679214      14       0       0       0      30     -0.50121601     -0.08699590     -0.01047713     -0.09517394      0.01338942      2.15089991     -2.50315704      0.10253667     -3.30590687      4.46379811
 Si              5.44888967      5.34880068      3.71557351      0.06513019     -0.02053182     -0.04382461      14       0      -1      -1      29     -0.00303514      0.35742452      0.26048123      0.20845131      0.27909778      0.68714307     -0.15606288      0.19432664     -0.17199763      0.81510862
 Si              3.67345632     -0.17295863     -0.31750367     -0.01098057     -0.13632702     -0.17207653      14      -1       0       0      30     -0.56878505      7.55094212     -0.79124469     -0.28308817     -0.16838646      0.13002319      0.16961904     -0.18342536      0.31684972     -0.00534098
 Si              5.45412460      0.79747680      0.61286339      0.35827153      0.05142945     -0.10878053      14      -1       0       0      31     -4.66521687     11.69605048     -3.99925414     -3.00359095     -3.91635248      1.94839904      1.78566158     -3.69836667      2.17088429      2.62493632
 Si              5.51372495      0.85377305      3.00729826      0.09324120     -0.01284789      0.17212032      14       0       0       0      30     -0.41959438      1.67936141     -1.12537415     -2.40581236     -0.88039012      0.36971324      1.00922388     -2.43736012      1.53451577      3.57167880
 Si              7.47157475      1.90561310      3.59882363      0.04840653      0.05830569     -0.02063060      14      -1       0      -1      29     -0.02492124      0.52626206     -0.03509078      0.10314308     -0.04604888      0.40603626      0.65900394      0.04792914      0.56382592      1.20601155
 Si              7.52577118      4.30005170      0.41061753     -0.06190742      0.08519956      0.05835376      14      -1      -1       0      30     -0.00615640      1.41582622      0.18661059     -0.13883881      0.29473547      1.01098998     -0.08906330     -0.19006428     -0.12144366      0.00061122
 Si              7.36533030      4.13141632      2.88204535     -0.01509309     -0.03484681      0.02194266      14       0       0       0      29      0.00000000      0.07711546     -0.09058595      0.05266885     -0.09882287     -0.00313191      0.05583004      0.05644993      0.07285175     -0.04971134
 Si              9.22885308      5.16131591      3.73668234     -0.08439259     -0.03489975      0.02447943      14      -1      -1      -1      32      0.01700304      0.31798760     -0.36429263     -0.01521358     -0.36171457      0.61025684     -0.00874368     -0.00614969      0.03573405      0.48583697
 P              -0.05411198     -0.06187873     -0.02882797     -0.56992180     -0.41826784     -0.06889471      15       0       0       0      29     15.54138324    -39.53151648     -4.92699783     -1.53006760     -5.45184888    -31.42193910     -1.15319727     -1.66583517     -0.83980901    -38.18118948
 15
 config_type=P_vac virial="0.11358537      -0.01524916      -0.34094633      -0.01524916       0.49557521       0.47086415      -0.34094633       0.47086415       1.13412106" energy=-7.9874044897622918 cutoff=5.00000000 nneightol=1.20000000 pbc="T T T" Lattice="7.63160824      -0.12744168      -0.17789361       3.69539915       6.58547695      -0.15085516       3.76142793       2.04584075       6.14758152" Properties=species:S:1:pos:R:3:force:R:3:Z:I:1:map_shift:I:3:n_neighb:I:1:local_energy:R:1:local_virial:R:9
 Si              1.86671802      1.01011283      0.65709041      0.16541723      0.04861317      0.18593878      14       0       0       0      29     -5.33008383      9.35370615      5.08685326      2.78357785      5.11029817      4.62297910      1.86435626      3.23560597      2.14153665      2.92766823
 Si              1.73099730      0.93552678      3.00290567     -0.12387680     -0.00393330      0.13433950      14       0       0       0      32     -0.98381044      2.70735064      1.55078860      4.53893831      1.70227200      0.65859468      2.59799130      4.13249251      1.88329877      7.21172689
 Si              3.69924486      2.02143684      3.79215025     -0.03598162      0.10394449     -0.69753792      14       0       0      -1      32     -5.69083430      1.37049359     -0.00729142      0.12626281     -0.01245136      0.02402916      1.48549311      0.60821744      0.41552015     14.18146052
 Si              1.77199778      3.16595894     -0.20410328     -0.13200023      0.11245520     -0.10678187      14       0       0       0      32     -0.77794178      2.21418037      4.32008654     -0.04584070      4.27167611      7.74267694     -0.50917107      0.20475206     -0.00137397      0.11704674
 Si              3.69291123      4.21872785      0.58081764      0.03905892     -0.05553133      0.16693397      14       0      -1       0      31     -5.21458292      1.45525146      0.39987763     -0.06049585     -0.00309154     12.89702581     -3.11144239      0.08317409     -2.34988776      0.83967269
 Si              5.43158516      5.24222583      3.55223963      0.06584746     -0.07374965      0.01968623      14       0      -1      -1      31     -0.01213498      0.34446385      0.14488598      0.39929165      0.18862127      0.73246402     -0.34978565      0.34549446     -0.36243332      1.18138276
 Si              3.70954483     -0.10373896     -0.32018278      0.05451833     -0.13642600     -0.17417179      14      -1       0       0      28     -0.59472098      7.06590354     -0.32971198     -0.43644923     -0.35559994     -0.03766732      0.10651532     -0.16258401      0.23875978      0.02876967
 Si              5.51060432      0.97782479      0.43851730      0.56053397     -0.33320118      0.13361764      14      -1       0       0      29     -4.38776994     10.57942721     -5.31227891     -2.13513077     -4.82313998      4.64866030      1.16469984     -2.75993863      1.70169985      1.56639686
 Si              5.60476811      0.90295976      2.95886686      0.12587022     -0.05924133     -0.02719619      14       0       0       0      32     -0.62206324      2.13263333     -1.21886150     -3.14905775     -1.19206772      0.49276527      1.54205801     -3.08603288      1.47419176      4.61900593
 Si              7.55223324      1.93814356      3.48292845      0.06439302      0.05412409     -0.07555014      14      -1       0      -1      29     -0.01928194      0.49973844     -0.01914698      0.06062823     -0.04640180      0.39013321      0.63314174     -0.00537655      0.55825641      1.23686505
 Si              5.53122158      3.16649130     -0.27306662      0.17638168      0.03257618     -0.15423512      14       0       0       0      32     -0.42286085      1.35056212     -2.05972057     -0.19781255     -2.34385129      3.68934985      0.06110131     -0.17611184     -0.06561537     -0.00392985
 Si              7.59031712      4.26307454      0.47344947      0.04842388      0.04419971      0.05585465      14      -1      -1       0      30     -0.01422214      1.04667574      0.18794068     -0.13884857      0.17162659      0.58269443     -0.10921729     -0.22800370     -0.18591173      0.09625751