 65
 config_type=P_disordered virial="3.05302821      -0.56354474       0.58156194      -0.56354474       4.26135919      -1.16893258       0.58156194      -1.16893258      -0.81075199" energy=-5.2018226695046126 cutoff=5.00000000 nneightol=1.20000000 pbc="T T T" Lattice="10.89328750       0.00000000       0.00000000       0.00000000      10.94676554       0.00000000       0.00000000       0.00000000      10.88484157" Properties=species:S:1:pos:R:3:force:R:3:Z:I:1:map_shift:I:3:n_neighb:I:1:local_energy:R:1:local_virial:R:9
 Si              1.88656302      1.81968306      0.22437660     -0.04212768      0.01293522     -0.00185555      14       0       0       0      34      0.00000000      0.05398435     -0.02878841      0.04985933     -0.01553907      0.00488817      0.00721478      0.10680805      0.04539517      0.28820708
 Si              0.56756737      3.37392061      1.96813137     -0.04517424      0.05065038     -0.00450788      14       0       0       0      36      0.00000000      0.16435411     -0.07902233      0.05760060     -0.12648224      0.07014154     -0.07549678      0.07014738     -0.04491800     -0.01165586
 Si              6.21499812      1.81331013      1.71623769      0.00423126     -0.01259742     -0.01387714      14      -1       0       0      32      0.00815799      0.13904108      0.11442172     -0.19534232      0.07524126      0.07977094     -0.10847678     -0.16586525     -0.12919451      0.24990756
 Si              3.77581962      0.63460088      1.62759859     -0.11407322     -0.07700944      0.05456794      14       0       0       0      35     -1.91888587      0.11576614      0.09924968     -0.48781126      0.25400165      0.58640279     -1.26033875     -1.19896811     -1.67532499      6.87677836
 Si              9.47305620      3.25549631      0.44232232      0.00000000      0.00000000      0.00000000      14      -1       0       0      38      0.00000000      0.00000000      0.00000000      0.00000000      0.00000000      0.00000000      0.00000000      0.00000000      0.00000000      0.00000000
 Si              8.70473658      0.93504338      0.99714227      0.00396205      0.00124232     -0.01705318      14      -1       0       0      36      0.00000000      0.00829751      0.00201690     -0.01175610      0.00260171      0.00063241     -0.00368617     -0.03571351     -0.00868098      0.05059974
 Si              1.42734737      6.43333417      2.73989379     -0.04354867      0.06821916      0.02910291      14       0      -1       0      36      0.00000000      0.03897526      0.07000766      0.04160721      0.10063914     -0.21990060     -0.03427779      0.03214107     -0.02564150     -0.07489661
 Si              3.01041991      4.31935673      2.11797362     -0.05141073      0.13607223     -0.08890152      14       0       0       0      34      0.00000000      0.03259322     -0.12673624      0.09098649     -0.10925931      0.28854700     -0.22870549      0.08196545     -0.21575480      0.15188306
 Si              4.39134548      4.86422928      0.24694909      0.00021745     -0.00279914      0.00361250      14       0       0       0      32      0.00000000     -0.00002598     -0.00159559     -0.00100375     -0.00118192     -0.00332478      0.00624610      0.00100602     -0.00388262     -0.01034715
 Si              4.15866350      6.65980755      3.31281685      0.03943480     -0.34720559     -0.16625833      14       0      -1       0      37     -0.01597275     -0.17253840     -0.35708398     -0.08547678     -0.21288372      2.19112404      0.75457136     -0.04289475      0.80431075      0.21405313
 Si              5.85194505      6.42415073      1.66821375     -0.03942762      0.07176565      0.07028516      14      -1      -1       0      32      0.00000000     -0.04840912      0.09575558      0.03904136      0.06857990     -0.18473187     -0.09081021      0.06729543     -0.17451417     -0.09247194
 Si              7.63191628      4.39336711      1.75681136     -0.01018131      0.00631532      0.00445798      14      -1       0       0      35      0.00000000     -0.03536228      0.02307534      0.01584218      0.02193469     -0.01431329     -0.00982667      0.01548370     -0.01010375     -0.00693664
 Si              9.96131070      5.39817009      2.56896151     -0.00232085     -0.00396848      0.01544829      14      -1       0       0      34      0.00000000     -0.00257301      0.04767284      0.00488257      0.00927115     -0.00437842      0.00654708     -0.03212204     -0.00788893     -0.02600916
 Si              8.46887822      7.11376756      1.01692031      0.00000000      0.00000000      0.00000000      14      -1      -1       0      36      0.00000000      0.00000000      0.00000000      0.00000000      0.00000000      0.00000000      0.00000000      0.00000000      0.00000000      0.00000000
 Si              1.73372708      9.91202287      2.66201895      0.14063803     -0.00849198      0.29793563      14       0      -1       0      37     -2.78244507      4.17456796      3.01782454      5.06278273      3.20623335      2.03329790      3.68346447      2.96300870      2.47782927      8.60457317
 Si              2.55997483      7.92373822      1.02047127      0.03296470     -0.04377278     -0.01000876      14       0      -1       0      32      0.00720687      0.08438103     -0.08755524     -0.00238887     -0.04036293      0.10372664      0.21241204      0.04509193      0.15905534      0.13881462
 Si              4.58581604      9.16626484      2.42642973      0.22003279      0.07850722      0.13570612      14       0      -1       0      36     -2.17658950      2.89061851     -2.59116019     -3.31569078     -2.89967124      3.65024161      3.92072280     -3.26222407      3.23956632      7.69963824
 Si              6.90999938      9.90703597      0.67909461     -0.01073751      0.03461460      0.00024972      14      -1      -1       0      33      0.00000000     -0.06489462      0.05116101     -0.03704826      0.05524510     -0.02485657     -0.08359744      0.01184399     -0.08971569      0.05556777
 Si             10.01972997     10.09861392      2.22143116     -0.12488532      0.02098597     -0.04334800      14      -1      -1       0      33      0.00000000      0.48108529     -0.06725355      0.02594086     -0.08567533      0.04226001     -0.02525679      0.02810102     -0.00748507      0.05222474
 Si             10.64112781      8.45723907      0.56923028      0.00886914     -0.00302100      0.02100710      14      -1      -1       0      38      0.00000000     -0.02666642     -0.02922424     -0.00295766     -0.00160423     -0.00931308      0.01942729     -0.04608508     -0.03843440     -0.03643616
 Si              7.89920815      8.72904841      2.68932381     -0.06740017      0.03225394     -0.00367887      14      -1      -1       0      34      0.00000000     -0.24924682      0.07759527     -0.04105985      0.05045490     -0.03860339     -0.02090830     -0.02832284     -0.02164268     -0.00310207
 Si              1.61837173      2.94934433      4.19050990     -0.21268846      0.53263762     -0.22100383      14       0       0       0      32     -0.54628166      1.46633585     -1.82100682      0.34751961     -3.84286852      6.25243491     -0.70838475      0.89775920     -1.05153980      0.31185645
 Si              5.24227556      1.46172301      5.99849785      0.31456334     -0.03762877      0.30500784      14       0       0      -1      33     -2.68697663      5.73191792      3.67620341      4.10126008      4.76150087      2.76880380      2.32315317      3.18785820      0.73135264      3.47715587
 Si              6.61049306      0.42599002      3.96431620      0.39385093     -0.05324821     -0.19015150      14      -1       0       0      30     -1.98943560      9.56597283      1.87527872     -3.37817201      1.03497693      0.61940145     -0.34691851     -1.45299035     -0.14277366      0.90689353
 Si              3.92536181      2.02872311      3.82700681     -0.55997881     -0.46703365      0.18496442      14       0       0       0      35     -3.58176868      2.15646361      0.79226421     -0.55637555      1.71450138      8.89383338     -5.60338727     -0.50737271     -3.71754375      4.08624442
 Si              7.58938321      3.07229154      4.23682185     -0.06093796     -0.04351250      0.03181537      14      -1       0       0      35      0.00000000     -0.15619568     -0.09603017      0.07763374     -0.06725325     -0.09451157      0.05380042      0.06348358      0.05059697     -0.07508926
 Si              9.13932955      0.72776666      4.11461386     -0.12949963      0.01254485      0.00233954      14      -1       0       0      33      0.00000000     -0.08909592     -0.15957545     -0.07446331     -0.15927497      0.07423997      0.00702271      0.00068380      0.00170609      0.03794443
 Si             10.66393776      2.09915344      5.67217720     -0.11173379      0.07146374      0.05413580      14      -1       0      -1      37     -0.00586399      0.86447198     -0.53084944     -0.35549674     -0.55198883      0.35514209      0.22674155     -0.31230542      0.19343214      0.03460663
 Si              8.35381809      3.38764036      6.61289051      0.00238569     -0.00520651     -0.00045774      14      -1       0      -1      33      0.00000000     -0.05095735      0.00615283      0.01871723     -0.00205544      0.00304247      0.01455597      0.00775389      0.00953752      0.01440132
 Si              0.10689220      4.65773574      6.43444200     -0.01730181     -0.02343711      0.03579191      14       0       0      -1      32      0.00000000      0.03246448      0.02659469     -0.00777917      0.04018114      0.06827490      0.00636722     -0.05844460      0.00507908      0.05826793
 Si              2.08644040      5.41573807      5.16753470     -0.00751628     -0.05665036     -0.01338823      14       0       0       0      35      0.00000000      0.01106794     -0.01993678     -0.00080122     -0.01405188     -0.13047579     -0.09181583     -0.00334762     -0.06950094     -0.03079755
 Si              5.50097263      3.93409966      3.78308573      0.27426081      0.22836947      0.09530877      14      -1       0       0      36      0.00571588      0.42423905      0.60099071      0.04333938      0.55764297      0.52918873      0.19776294      0.06847871      0.22441714     -0.06138840
 Si              4.55165546      5.48179664      5.57575179     -0.01828916     -0.03282639     -0.01213353      14       0      -1      -1      34      0.00000000     -0.01490896     -0.07077630     -0.02526735      0.00804311     -0.08234686     -0.06831322     -0.02803276     -0.10423441     -0.03278117
 Si              4.69813849      3.63249921      7.17760474     -0.03312239      0.16408138      0.04894455      14       0       0      -1      34      0.00645071      0.11939951     -0.04032519     -0.04414112      0.04503101      0.55447924      0.11021684      0.02152841      0.14849442      0.06998052
 Si              9.10324296      5.53071133      4.91027152      0.01278032      0.01547352     -0.01454668      14      -1      -1       0      35      0.00000000     -0.03387600     -0.03155093      0.00828928     -0.04162281     -0.04003884      0.01067866      0.03890742      0.03640819     -0.00974851
 Si              0.78300720      8.19803846      4.30060576     -0.18765083     -0.37338305     -0.09195914      14       0      -1       0      32     -0.35806318      2.45088339      1.86003337      0.58477683      1.90411071      1.55150114      0.57310851      0.88120114      0.84617907      0.25166059
 Si              1.89147419      8.10910749      6.38666192     -0.04304117     -0.03738357      0.10032529      14       0      -1      -1      33     -0.83502712      1.57093472      1.57609118     -1.41996502      2.78375747      4.93634584     -4.42143666     -1.50203843     -3.26680193      3.76316620
 Si             -0.06852307      9.87879835      7.17554366     -0.18946746     -0.09317376      0.22122136      14       0      -1      -1      34      0.00401489      0.59940475      0.05918198     -0.40037999      0.13438406     -0.03929205     -0.04051994     -0.46608904     -0.00354381      0.26162092
 Si              4.49234928      8.06077171      6.38616253     -0.02832729     -0.05869695      0.23289789      14       0      -1      -1      33     -0.87129174      1.97319024     -2.20134304      1.22293670     -1.51989204      5.16021341     -3.08258427      1.33361599     -4.37424207      3.34394772
 Si              5.91816775      8.81089165      4.39098075     -0.22265829      0.13396260      0.03409967      14      -1      -1       0      36     -1.40309690      7.43881311     -3.51350291      0.20396460     -4.93989875      5.09712840     -0.69615807     -2.64591304      1.22409514      1.26595037
 Si              9.21331539      8.04397957      4.72579697      0.04714139      0.00170208     -0.00100437      14      -1      -1       0      34      0.00000000     -0.10164698     -0.02470362      0.05468008      0.02078817      0.00369127     -0.00763891      0.02752309     -0.02635952     -0.02013655
 Si              8.91650387      9.93091694      5.90949570     -0.09032397      0.00287116     -0.02886385      14      -1      -1      -1      29      0.00000000     -0.07855162     -0.07933360     -0.09922406     -0.06160297     -0.01498522     -0.01110228     -0.09357855     -0.00860526     -0.06814829
 Si              3.37700578      2.15866759      9.21348120      0.01560039     -0.03977154     -0.07692627      14       0       0      -1      35      0.00000000     -0.04771209      0.03463145     -0.00131884      0.03555718     -0.10926105     -0.12242586      0.07917597     -0.13863686      0.08498326
 Si              0.46741210      1.69626183      7.89010911     -0.02604252      0.01820533      0.04636080      14       0       0      -1      35      0.00731510      0.12845151     -0.08654950     -0.19012164     -0.08669583      0.04563191      0.14150129     -0.15849906      0.12031082      0.19613641
 Si              2.36341067      0.16101443      8.06194848      0.06564216     -0.03651947     -0.33309013      14       0       0      -1      33     -1.05838357      0.91650966      0.06771640     -1.29214500      0.07136270      0.19069555     -0.19451414     -2.72116490      0.39318517      6.68330486
 Si              0.58032634      3.58118240      9.62858263      0.00464039     -0.00814163     -0.00850164      14       0       0      -1      35      0.00000000     -0.00855799      0.01608304      0.00700823      0.01252198     -0.02635427     -0.01459399      0.01071419     -0.02575434     -0.01741590
 Si              5.22561990      2.73155169     10.58158094     -0.00192795     -0.00733447      0.03592728      14       0       0      -1      35      0.00000000     -0.00276139     -0.00372809      0.00421915     -0.01058728     -0.01494903      0.01484176      0.05198995      0.07442948     -0.07080340
 Si              6.76001688      2.83153385      8.40749825     -0.04565177     -0.04721205     -0.02931567      14      -1       0      -1      36      0.00000000     -0.07387163     -0.08763422     -0.09299467     -0.07760623     -0.09725375     -0.09169158     -0.04837871     -0.06142978     -0.05623008
 Si             10.39130859      0.10326650      9.64382442     -0.02302217     -0.01136686     -0.02467814      14      -1       0      -1      31      0.00000000      0.06884944      0.00275289     -0.03535311      0.01544869     -0.00914944     -0.02370866      0.03516392     -0.01442072     -0.05293700
 Si              7.65203231      0.60920401      9.36184308      0.00694567      0.00265110      0.00157199      14      -1       0      -1      33      0.00000000      0.02227980     -0.02232464      0.03370300      0.01359409      0.00916293      0.00073618     -0.00885072     -0.03795546      0.03058403
 Si              2.88642451      6.14095266      9.75364169      0.01007704     -0.01258994      0.02851265      14       0      -1      -1      38      0.00000000      0.01546357     -0.01993422      0.03392814     -0.00480242      0.02463541     -0.04239157      0.01575037     -0.05588281      0.09600395
 Si              2.40156747      4.48726265      8.16367848      0.00631339      0.04053112      0.05635760      14       0       0      -1      33      0.00000000      0.00609884     -0.00485093      0.02360692      0.00934650      0.29449831      0.05005725      0.03867628      0.04501954      0.17599800
 Si              6.97141498      4.88394250     10.00552483      0.00000000      0.00000000      0.00000000      14      -1       0      -1      34      0.00000000      0.00000000      0.00000000      0.00000000      0.00000000      0.00000000      0.00000000      0.00000000      0.00000000      0.00000000
 Si              4.97889074      6.32374569      8.47748230     -0.04545676      0.09413755     -0.09246210      14       0      -1      -1      35      0.00000000     -0.04591767      0.08865373     -0.09052918      0.04431151     -0.17152370      0.19293852     -0.04775142      0.17906609     -0.18435357
 Si             10.14574151      5.60981841      8.44889369     -0.01452528     -0.01670859      0.01249162      14      -1      -1      -1      31      0.00000000      0.03833251      0.03630288     -0.02995450      0.04409431      0.04175960     -0.03445699     -0.03296563     -0.03122016      0.02576061
 Si              7.80377511      5.73404798      7.83879129      0.01958169     -0.01475702      0.00920623      14      -1      -1      -1      35      0.00000000      0.06484331     -0.04556118      0.02844492     -0.04886679      0.03433552     -0.02143648      0.03048575     -0.02142035      0.01337323
 Si              1.76154662      8.06183804      8.79828869     -0.00580091     -0.02998086     -0.03237812      14       0      -1      -1      36      0.00000000     -0.04237809      0.05397029      0.01113358      0.05671264      0.03889888     -0.05311307      0.01753280     -0.03620375     -0.09577916
 Si              1.78286795     10.17319333     10.40534237      0.08247660      0.04490217     -0.07499011      14       0      -1      -1      31      0.00000000     -0.12641783     -0.05430864      0.02887326     -0.03949177     -0.05110914      0.03829625      0.12984674      0.05901551     -0.39336497
 Si              5.25043789      7.99017005     10.75386165     -0.01876368      0.00086484      0.11799645      14       0      -1      -1      34      0.00000000     -0.01264904      0.02642750      0.09584259      0.01059629      0.03394954     -0.23790410      0.05741958     -0.23181574      0.07828216
 Si              4.84764232     10.24767891      7.46031474      0.05290027     -0.02530709      0.23478675      14       0      -1      -1      31     -1.65809379      2.74913541     -1.80391798      3.54501362     -0.83975159      1.41501966     -0.15748239      4.85339828     -2.36656571      7.95047292
 Si              4.42813907     10.30828808     10.25336056     -0.03106261      0.00920225      0.05312282      14       0      -1      -1      37      0.00000000     -0.01405800      0.01122073     -0.01233183      0.01088022     -0.02609684      0.06205103      0.02630052      0.06049053     -0.45212841
 Si              7.14159676      9.80614956      7.82449657      0.01973576     -0.02743092     -0.01623187      14      -1      -1      -1      33      0.00163494     -0.00405843     -0.04776077     -0.04882138     -0.06346275     -0.08960970     -0.04408737     -0.03301504     -0.03413650     -0.05022067
 Si              7.46850280      7.94290520      9.38104556      0.06458588     -0.03655289      0.03003216      14      -1      -1      -1      34      0.00000000      0.09340238     -0.13656137      0.13142687     -0.14077280      0.08415668     -0.06948080      0.13068296     -0.06423222      0.05925438
 Si             10.01423157      8.20327909      9.11234236     -0.02510609      0.02014259      0.01737035      14      -1      -1      -1      34      0.00000000      0.06310582     -0.00283446     -0.06926307     -0.04254448     -0.01578486      0.04645595     -0.05815975      0.01258468      0.05241343
 P              -7.48374515     10.68597237      4.76013119      0.85735243      0.18741461     -1.01139030      15       1      -1       0      36     16.64585700    -42.19933659     -0.69955529     -3.00786481     -1.68934011    -42.35797478      4.27710316      0.14383188      6.02751195    -56.59008513
 65
 config_type=P_disordered virial="6.86936596       3.44922655      -2.41253544       3.44922655       9.15496235      -0.32712888      -2.41253544      -0.32712888       5.69809023" energy=-4.9493789467357319 cutoff=5.00000000 nneightol=1.20000000 pbc="T T T" Lattice="11.01467416       0.00000000       0.00000000       0.00000000      11.00790202       0.00000000       0.00000000       0.00000000      10.98449965" Properties=species:S:1:pos:R:3:force:R:3:Z:I:1:map_shift:I:3:n_neighb:I:1:local_energy:R:1:local_virial:R:9
 Si              2.20751825      0.19552425      2.68171193     -0.09350884     -0.00327172      0.04240756      14       0       0       0      34      0.00000000     -0.06525941      0.04481023      0.17523375      0.01298562      0.04663404      0.02391124      0.12990088      0.00629140     -0.07414832
 Si              4.91176999      2.73799371      1.19738154      0.04382435     -0.00474497      0.05522905      14       0       0       0      35      0.00000000     -0.08119848      0.03417159     -0.08373015      0.01211475     -0.00168968      0.00610589     -0.10638997      0.04090873     -0.10194817
 Si              6.60637489      1.85984596      3.24928167     -0.47847605      0.29726656     -0.21105458      14      -1       0       0      33     -3.13077888      3.81046752     -0.89337247      2.93628068      0.26408810      0.75962473     -0.13677584      4.26450908     -1.79848474      6.04990347
 Si              4.21055468      0.43245746      0.99660163      0.00386814     -0.00249192      0.01594793      14       0       0       0      36      0.00000000     -0.02187058     -0.01396142      0.00258534      0.00311220     -0.00252888      0.00867868     -0.03309921     -0.02060426     -0.04035393
 Si              9.10704345      1.04951028      3.30990213      0.49556076     -0.07265264     -0.15281762      14      -1       0       0      34     -3.94648937      3.23314806     -1.19026859     -3.81521332     -1.15131499     -0.02465381      2.00096851     -3.60350001      1.94215595      9.84134824
 Si             10.63981677      1.81991020      1.37299417      0.26521220      0.13265791     -0.18758776      14      -1       0       0      35      0.00533202      0.43582676      0.20665812     -0.51958919      0.19748672      0.09359502     -0.25090539     -0.49753351     -0.25802664      0.52786958
 Si              8.55614593      2.64893161      0.17468030      0.04891151     -0.02373157     -0.03407493      14      -1       0       0      32      0.00000000     -0.02675895      0.02566232      0.04984464      0.01857915     -0.05706104      0.12180217      0.01231165      0.09967380      0.01780529
 Si              1.75455143      6.06041839      2.32796268      0.01147324      0.01041807     -0.00703619      14       0      -1       0      33      0.00000000      0.01635235      0.02727876     -0.02777690      0.01484846      0.02476999     -0.02522232     -0.01002840     -0.01672924      0.01703473
 Si              3.51521478      4.15084109      2.99945109     -0.01704498      0.02704726     -0.00957116      14       0       0       0      33      0.00000000      0.08067143     -0.04066024      0.04094073      0.00349662      0.02840702     -0.03684521     -0.00451163      0.01432595      0.06114256
 Si              2.93600614      4.25687792      0.65551070     -0.00048379      0.00020523     -0.00043662      14       0       0       0      31      0.00000000      0.00149828      0.00018357      0.00127585     -0.00063560     -0.00007788     -0.00054124      0.00135221      0.00016568      0.00115146
 Si              6.03298621      4.63632801      3.29271935     -0.12056348      0.04288649     -0.01778000      14      -1       0       0      35      0.00028163      0.37196132     -0.38294536      0.29929310     -0.28525395      0.36281539     -0.30164922      0.21768354     -0.29556649      0.13486697
 Si             10.65566281      4.43381416      2.11821722      0.08358732      0.00568622     -0.07347241      14      -1       0       0      35      0.00000200      0.17522657      0.04761517     -0.17175764      0.01726702      0.00683975     -0.02491397     -0.15661301     -0.05369444      0.09528783
 Si              7.64711491      4.78168299      1.18569245     -0.01390989      0.00200336     -0.01088876      14      -1       0       0      36      0.00000000      0.01405161     -0.01990974      0.00686003      0.00581800      0.01581746      0.01755437     -0.01127721     -0.02329753      0.06048773
 Si              9.44981915      6.54883031      3.40060686      0.01733044      0.12434730      0.00287657      14      -1      -1       0      33      0.00000000      0.01825347      0.10722507      0.00167169      0.09887213      0.09429072     -0.09145503      0.00507282     -0.05680523      0.00271885
 Si             10.49765759      5.76036223     10.98375919      0.00892147      0.01251094      0.03147659      14      -1      -1      -1      34      0.00000000      0.00964087      0.02605810      0.01532482      0.01304664      0.03565574      0.02245551      0.02626868      0.07742265      0.06986549
 Si              3.03808896      8.85971089      0.29498850      0.00000000      0.00000000      0.00000000      14       0      -1       0      31      0.00000000      0.00000000      0.00000000      0.00000000      0.00000000      0.00000000      0.00000000      0.00000000      0.00000000      0.00000000
 Si              0.66656621     10.21828205      0.99503653     -0.03045096      0.00654454     -0.01029653      14       0      -1       0      32      0.00000000     -0.06285800      0.05888503      0.04300354      0.04466315     -0.00922019      0.02632524      0.03787787      0.00732534     -0.00983177
 Si              0.04223316      7.90089324      1.58507101      0.00138814      0.00836805     -0.00136741      14       0      -1       0      32      0.00000000      0.00271045     -0.00140812     -0.00390076      0.01633924     -0.00848849     -0.02351477     -0.00266997      0.00138709      0.00384251
 Si              7.02846183      7.35627258      2.04055149     -0.02204603      0.02529347     -0.01735912      14      -1      -1       0      35      0.00000000      0.02750012     -0.02078744      0.04610262     -0.03535119      0.08744353     -0.04916548      0.03397247     -0.04604629      0.03594108
 Si              6.54119883     11.00380482      1.62255523      0.04654570     -0.05481021      0.05705829      14      -1      -1       0      36      0.00724662     -0.04021766     -0.02622456     -0.02719105      0.02248505      0.11420610      0.15028581      0.00161127      0.07192507     -0.09255529
 Si              3.79652231      7.37807692      2.55961991     -0.00489979     -0.00716774     -0.00362643      14       0      -1       0      35      0.00000000      0.01188939      0.01320354      0.00778880      0.01701750      0.00858493      0.00970345      0.00871626      0.00738883      0.00538915
 Si              5.44098069      7.59333493      0.08191566      0.00137162      0.00157397      0.00974066      14       0      -1       0      32      0.00000000     -0.00099354     -0.00113690     -0.00522214     -0.00139176     -0.00850337     -0.00712670     -0.00711577     -0.00979338     -0.03735627
 Si              8.52629222      9.31303976      1.86330884      0.00939653     -0.11202139     -0.08657852      14      -1      -1       0      37      0.00000000      0.02809193     -0.04015745     -0.02985527     -0.06588808      0.30028178      0.22429910     -0.05892351      0.23299140      0.20965384
 Si              0.32929149      3.68281966      4.74897909      0.08652146      0.03667423      0.00064734      14       0       0       0      32     -1.10210542      6.46103102      4.18124574     -1.08823694      3.49387531      2.34263366     -0.30394816     -2.48707108     -1.47138144      0.52458361
 Si              0.30223794      1.07677090      4.33611778      0.13869005     -0.01610945     -0.07152821      14       0       0       0      31     -1.57883024      7.71402760     -1.60814165     -2.85514472     -2.50026215      2.09375120      0.49485407     -3.82881081      0.29768114      2.26989562
 Si              2.74509551      2.44019395      4.47187048      0.00670944      0.00834597     -0.00660699      14       0       0       0      33      0.00000000     -0.17141050      0.10747481     -0.04826288      0.16549547      0.02593134     -0.05700709     -0.06773159     -0.04123844      0.04284432
 Si              4.65808105      0.81113908      4.96509657     -0.02211994     -0.03804668     -0.08297870      14       0       0       0      31     -0.36152076      1.38380826      0.60155134      0.26496964     -0.55925887      0.31310054      0.07275708      0.50258661      0.33123091      0.06441107
 Si              7.17645099      0.07112519      5.38208059     -2.64182452     -3.01198581      0.63868080      14      -1       0       0      34     -5.98032660      2.42793764      3.59760481      0.91926716      1.31121518      2.23351512      0.40900545     -0.60858790     -1.11451529      2.58572858