 15
 config_type=P_vac_migration virial="-1.27092034      -0.81620585      -0.54932426      -0.81620585      -1.39419474      -0.74723592      -0.54932426      -0.74723592       0.03512953" energy=-7.1986372910048635 cutoff=5.00000000 nneightol=1.20000000 pbc="T T T" Lattice="7.61361354      -0.13863694      -0.10402507       3.75292396       6.57306378      -0.18057007       3.74055456       2.11240234       6.23324272" Properties=species:S:1:pos:R:3:force:R:3:Z:I:1:map_shift:I:3:n_neighb:I:1:local_energy:R:1:local_virial:R:9
 Si              1.51655044      1.10702677      3.01035803     -0.10787967      0.02670291      0.06570237      14       0       0       0      30     -0.82922006      1.03903809      0.86311057      2.07461058      1.04647814      0.54568849      1.91569018      3.09281742      2.11456512      6.03899877
 Si              3.47065513      1.86873489      3.82963732      0.27581238      0.15647833      0.35799200      14       0       0      -1      29     -5.03326945      1.67515191      0.31796350      0.98107614      0.34657294      1.50597510      0.76859630      2.67651901      2.32480324     14.59072738
 Si              1.64274724      3.23635356     -0.19128656     -0.14780218     -0.34036634      0.01699809      14       0       0       0      31     -0.84490219      1.50955986      2.12299346      0.04999971      3.56447811      6.98433049     -0.21109094     -0.36111604     -0.77830300      0.09323045
 Si              3.61769118      4.21798309      0.53092746      0.32978513      0.62527529     -0.10584300      14       0      -1       0      30     -4.41233676      0.56336537      1.50812862      0.17528851      2.77294650     10.14506415     -2.15832515     -0.29640653     -3.16323164      0.41806222
 Si              3.72162238      4.12005324      3.13262069      0.02888845      0.33291796     -0.43449224      14       0       0      -1      30     -0.81217337     -0.15564449     -0.02854577      0.24447712      0.06818785      2.18458818     -2.51299861      0.14226547     -4.47095787      5.96827338
 Si              5.42180697      5.36859947      3.50433702      0.07134511      0.01581154     -0.01198550      14       0      -1      -1      30     -0.04738858      0.37952872     -0.07207562      0.60463587     -0.05294989      0.66073654     -0.96643547      0.45834018     -1.00759762      1.97176677
 Si              3.63212588     -0.25692193     -0.14627565     -0.09524803     -0.14244447     -0.09402461      14       0       0       0      32     -0.72467252      7.12135313     -0.62858281      0.07728514     -1.41459597     -0.08790804      0.10828480     -0.59388589      0.07771889     -0.12069300
 Si              5.47585884      0.78006152      0.56114527      0.68871504     -0.00608267     -0.10916914      14      -1       0       0      31     -4.70709493     11.57487761     -2.81710721     -2.79252561     -4.54712423      2.83530225      1.42680428     -3.78434823      1.23712113      2.08240228
 Si              5.60111211      0.92058437      3.02005340      0.03077411     -0.07397421      0.02284469      14       0       0       0      29     -0.59196033      2.39856100     -1.17130795     -3.09330136     -1.36030403      0.77187908      1.99903644     -3.33773201      2.06075228      5.77378179
 Si              7.39825962      2.08503957      3.66629088     -0.07385881     -0.01606673     -0.08018558      14      -1       0      -1      29     -0.01883075      0.70897070      0.04223706     -0.36424048      0.03104345      0.21869507      0.32821946     -0.42236235      0.33280056      0.83994539
 Si              5.94269668      3.04165737     -0.08526150     -0.20943884      0.33865944      0.09535357      14      -1       0       0      31     -0.88074615      2.45855021     -4.22356623      0.11209398     -2.75985928      6.66744661     -0.31256972     -0.34635837      0.61870600     -0.36025444
 Si              7.58058982      4.33281220      0.52160315     -0.00544365     -0.01478812      0.01369359      14      -1      -1       0      29      0.00124916      1.17443143     -0.17555498     -0.06848396     -0.10273447      1.34653739     -0.06700858     -0.06379539     -0.06961961      0.08774129
 Si              7.48225600      4.20676699      2.87284336     -0.02930056     -0.00940660     -0.02318604      14      -1       0       0      29      0.00000000     -0.04793685      0.05840008      0.00876500      0.06048855     -0.30751274     -0.05506000      0.01650123     -0.03519500     -0.10050419
 Si              9.28597912      5.04938459      3.58564703     -0.10516916     -0.01360580     -0.04609450      14      -1      -1      -1      29      0.00609963      0.54313789     -0.33025129      0.31303391     -0.34114223      0.57253227     -0.46889736      0.30230780     -0.50201394      0.53721648
 P               0.03253844      0.06784921     -0.07304621     -0.65117932     -0.87911054      0.33239632      15       0       0       0      31     11.69660902    -32.21386492      3.71795270      1.12796119      1.87230871    -35.43754958     -0.54148155      1.96792945      0.51321555    -37.78556504
 15
 config_type=P_vac_migration virial="0.05821334      -0.09077199       0.84563141      -0.09077199      -3.54417220      -0.79222469       0.84563141      -0.79222469      -0.64862420" energy=-6.2564458323786392 cutoff=5.00000000 nneightol=1.20000000 pbc="T T T" Lattice="7.50834601      -0.13912712      -0.10270589       3.78632802       6.56555524      -0.17832623       3.76248996       2.13448708       6.15540671" Properties=species:S:1:pos:R:3:force:R:3:Z:I:1:map_shift:I:3:n_neighb:I:1:local_energy:R:1:local_virial:R:9
 Si              1.45823816      0.92205414      2.98979085     -0.32284675     -0.10880941     -0.16888121      14       0       0       0      32     -1.61354278      0.87911983      0.40854292      2.16409916      0.55785331      0.15684917      1.95713558      2.75587621      1.96707888      8.66907668
 Si              3.68763435      1.82420252      3.61314085      0.38391732      0.45512010      1.06486709      14       0       0      -1      32     -3.14899772      0.04034328      0.06552970      0.14300311      0.11478029      0.64143709     -0.29636309      2.64035370      2.01666999      8.59921164
 Si              1.83884037      3.31437380     -0.34938991     -0.42374943     -0.36456716     -0.13461112      14       0      -1       0      32     -1.11449658      1.23863016      2.62589495     -0.49169415      2.96063222      7.60568661     -1.55286930     -0.52682412     -1.60110949      0.24870495
 Si              3.73066153      4.12084951      0.42138226      0.40023749      1.34190459     -0.04137814      14       0      -1       0      32     -3.17419703      0.72063701      0.83479704     -0.14888121      1.64573114      8.47671064     -0.91954350     -0.58109112     -2.46689674      0.67971386
 Si              3.65442989      4.22414393      2.93152673     -0.08788844      0.02921668     -0.27416108      14       0       0       0      29     -0.44588993      0.17707493      0.29925843     -0.01272582      0.55388290      1.48574364     -1.74276480      0.35693546     -1.95399084      2.81687097
 Si              5.23828473      5.26264596      3.44350835      0.16152360     -0.17867919      0.09039468      14       0      -1      -1      34     -0.35975909      0.32985769      0.01609014      0.77898382      0.49240258      0.38145125     -0.20133213      0.38586293     -1.53153899      2.45204911
 Si              3.59938844     -0.14851928     -0.38807612     -0.43346135     -0.10402682     -0.07062271      14      -1       0       0      31     -1.60346814      9.07771918     -0.76070139     -1.41726303     -1.55115244     -0.23960252      0.26971546     -1.27922641      0.16458753      0.27021549
 Si              5.22037632      0.85707698      0.40337195      1.13295499      0.05429627      0.21596959      14      -1       0       0      35     -2.49624056      9.38789184     -3.26384411     -2.30033185     -4.07363797      2.33061979      0.85275502     -2.52804994      0.83434948      1.48408669
 Si              5.78002144      1.06396079      2.82654249      0.01595318     -0.05632351     -0.02057947      14      -1       0       0      31     -0.57166344      1.69016196     -0.78743308     -2.17975180     -0.83852785      0.16288136      1.18609833     -1.74352432      1.08376853      2.83642860
 Si              7.30458036      1.79520491      3.37911757     -0.17590331      0.02967180     -0.11436418      14      -1       0      -1      31     -0.33199070      1.47084433      0.01536010     -0.71246013     -0.33501576      0.27716608      0.75732724     -1.49683789      1.11772533      2.31455060
 Si              5.74371734      3.07056745     -0.04837661     -0.06404117      0.10550944     -0.15484411      14      -1       0       0      30     -0.39361305      1.34683906     -1.54571610      0.07518692     -1.75201353      3.46301524     -0.14430242     -0.22341864      0.01644699     -0.14227137
 Si              7.38828259      4.26538743      0.29103962      0.12369079     -0.14023901      0.11213687      14      -1      -1       0      29     -0.26304153      1.33465930     -1.46389329      0.16008101     -0.10925305      0.76061454      0.10133724      0.11701060      0.01311439     -0.17755660
 Si              7.41047337      4.28642674      2.74696163      0.00631989     -0.03067702      0.05729626      14       0      -1       0      29      0.00164171      0.03138740      0.02414477      0.21686221     -0.02626872     -0.18737595     -0.04022737      0.15675837     -0.06808250      0.04263056
 Si              9.40524098      5.13393108      3.62719870     -0.15438225     -0.00637794     -0.02295968      14      -1      -1      -1      28      0.01937521      0.72432336     -0.04032672      0.23193729      0.08328078      0.71749099     -0.20984216      0.27358979     -0.19497564      0.65213905
 P               0.45390622      0.21445147      0.12846072     -0.56232455     -1.02601880     -0.53826278      15       0       0       0      33      9.23943780    -28.39127599      3.48152464      4.33858587      2.18653413    -29.57686013     -0.80934878      2.53821679     -0.18937162    -31.39447442
 15
 config_type=P_vac_migration virial="-0.13821569       0.47328858      -0.36477078       0.47328858       0.77245583      -0.19085207      -0.36477078      -0.19085207       1.87232065" energy=-6.4029237948823452 cutoff=5.00000000 nneightol=1.20000000 pbc="T T T" Lattice="7.53538796      -0.13997823      -0.10272809       3.76458072       6.53872775      -0.18040498       3.72348227       2.10102341       6.19593435" Properties=species:S:1:pos:R:3:force:R:3:Z:I:1:map_shift:I:3:n_neighb:I:1:local_energy:R:1:local_virial:R:9
 Si              1.72403786      0.90389346      2.95423807     -0.43187614     -0.15152694     -0.22010130      14       0       0       0      30     -1.79845368      1.43966403      1.01453183      2.79476412      0.73643055      0.34460809      1.96499948      4.17768822      3.26534073      8.43331328
 Si              3.49269339      1.94408630      3.79633939      0.69264012      0.26291895      0.91923301      14       0       0      -1      32     -3.36695334      0.26616575      0.40519260      1.33040081      0.36261168      0.45541487     -0.29142011      4.16433808      1.55656411      8.59126621
 Si              1.75344709      3.18179463      0.00798903     -0.57561046     -0.36464737     -0.27909317      14       0       0       0      32     -1.75265820      1.23939109      2.65646928      0.12397441      4.01220836      8.25178913      0.05525532     -0.16552399     -0.63615770     -0.85377482
 Si              3.62212335      4.12329953      0.58943862      0.50897127      0.71945967     -0.08421938      14       0      -1       0      31     -2.90786584      0.65684283      0.46696726     -0.21465329      2.08882089      8.82698597     -1.75409834     -0.85696010     -3.01669079      0.96089380
 Si              3.67411419      4.15879805      2.99551279      0.00464175      0.12229211     -0.15517288      14       0       0       0      30     -0.36101767      0.36020212      0.13728501      0.25563259      0.38044791      1.04115934     -1.03902509      0.53599792     -1.45814446      2.74220035
 Si              5.43762375      5.40014008      3.46106953      0.23737354      0.15110424      0.11118439      14       0      -1      -1      31     -0.18925496      0.42218785     -0.11509758      0.78954991      0.47629711      0.68668874     -0.55941616      0.31628794     -1.75874837      2.52955010
 Si              3.54660081     -0.26245162     -0.19761635     -0.34564651      0.15425384     -0.04074958      14       0       0       0      32     -1.88305846      9.43188777     -1.14376750     -0.33510830     -1.99637515     -0.03727346      0.06932734     -1.27901718      0.14486564     -0.71434899
 Si              5.32575368      0.97192393      0.58936211      1.19171026      0.06316940     -0.00197893      14      -1       0       0      32     -2.67772144      8.62208379     -3.45152256     -2.32533340     -4.31063702      1.93247662      0.87217593     -3.44222941      1.06447193      1.63142835
 Si              5.68955722      0.91723506      2.87953772     -0.09602446      0.04995494      0.07497150      14      -1       0       0      31     -0.45074423      2.41915610     -0.77053502     -2.92725067     -1.07293429      0.28122233      1.66193361     -2.11343536      1.32135616      3.84276777
 Si              7.31817002      1.96362775      3.41082965     -0.12796986     -0.06070179      0.01097977      14      -1       0      -1      30     -0.27405585      0.94436118      0.54323390     -0.22669971      0.24119999      0.14833254      0.27971162     -0.96406090      0.60457887      1.74755566
 Si              5.65741353      3.18436903      0.10312757     -0.17508490     -0.00836459     -0.02109896      14       0       0       0      29     -0.32904129      1.94326836     -2.13918090     -0.01481920     -1.56018422      3.44786900     -0.24454365     -0.13675126     -0.24859256     -0.09264020
 Si              7.49760523      4.06766851      0.49740678     -0.08389691      0.14924097      0.04286049      14      -1      -1       0      30     -0.20202813      0.93136270      0.17541299      0.43180538     -0.80170797      0.73185995     -0.13606962      0.30689354     -0.04563424      0.02007207
 Si              7.46699391      4.30822059      2.99523358     -0.10113043     -0.01530254      0.04714205      14       0      -1      -1      28      0.00000000     -0.05247316      0.07608416     -0.06215850      0.00318678     -0.06976673     -0.04598657     -0.05972084     -0.01559818     -0.06998603
 Si              9.17858309      5.25305156      3.71909520      0.04547210     -0.05801322      0.04848841      14      -1      -1      -1      29      0.01889658      0.36720038     -0.12813299      0.03155158     -0.13409189      0.58764605      0.31975984      0.05022681      0.34993964      0.46236949
 P               0.47111052      0.27492663      0.16355947     -0.74356938     -1.01383766     -0.45244542      15       0       0       0      33      9.77103272    -29.12951650      2.74634811     -0.01642652      2.04801586    -25.85655660     -1.34345566     -0.89850426     -1.31840286    -27.35834638
 15
 config_type=P_vac_migration virial="-0.32103700       0.28250358      -0.15353544       0.28250358       0.12116896      -1.10478521      -0.15353544      -1.10478521       1.39180718" energy=-6.6915459309886680 cutoff=5.00000000 nneightol=1.20000000 pbc="T T T" Lattice="7.59447999      -0.13839283      -0.10224983       3.79294993       6.63733109      -0.17842435       3.74777213       2.12899528       6.22482047" Properties=species:S:1:pos:R:3:force:R:3:Z:I:1:map_shift:I:3:n_neighb:I:1:local_energy:R:1:local_virial:R:9
 Si              1.64782756      0.90116532      2.81666633     -0.43591251     -0.35423182     -0.68260412      14       0       0       0      31     -2.40550832      0.99732095      0.93188545      2.81710463      0.58711182      0.58561047      1.30814370      4.89714570      3.21310670      7.78904530
 Si              3.56372507      1.98072554      4.02596027      0.73379197      0.31698626      0.97154859      14       0       0      -1      32     -3.97234226      0.56641914      0.81397813      1.50850441      0.73077264      0.23836448      0.03525273      5.04492543      2.53004340      9.68962793
 Si              1.65693840      3.20545850     -0.01102249     -0.13388191     -0.43434925     -0.12725152      14       0       0       0      31     -2.03959397      0.96600189      2.93933429     -0.05705875      3.56723258      8.12660110     -0.44669097     -0.51708201     -1.55184855     -0.46357019
 Si              3.66166922      4.21149275      0.45640301      0.62038646      0.79349100      0.06274407      14       0      -1       0      32     -3.05691832     -0.11559100      0.48185747     -0.21984286      2.09225099      8.82245928     -0.80443372     -0.85274340     -2.42288848      0.16257792
 Si              3.76867087      4.17740361      3.02714206      0.06590659      0.15426479     -0.28462466      14       0       0      -1      29     -0.46607738      0.24487297      0.33832286      0.36676089      0.58757880      1.42118259     -1.72782224      0.42597831     -2.44007073      4.13720224
 Si              5.52130615      5.30430461      3.30131852      0.15550403      0.06343997     -0.01581026      14       0      -1      -1      29     -0.31417872      0.63500113     -0.74846979      1.58989796      0.14222281      0.18443435     -0.49910721      0.99490145     -1.99977869      3.59605092
 Si              3.82403994     -0.08849158     -0.26422108     -0.53145438     -0.27140203     -0.06232066      14      -1       0       0      31     -1.39452425      8.62429009     -1.09840764     -1.80910107     -2.03651973      0.10841508      0.35730204     -2.12705966      0.27581353      0.26584549
 Si              5.49077712      0.89354962      0.52163399      1.05283261      0.01196091      0.11021796      14      -1       0       0      30     -3.23408234      9.31044172     -1.65773401     -0.83805904     -3.82552909      1.45749722      0.11143769     -3.10360956      0.40841117      1.30445571
 Si              5.72527318      0.95301764      2.96914752     -0.25668215      0.03453792      0.11001539      14      -1       0       0      29     -0.56264922      2.88916825     -0.79429499     -3.32715867     -0.89904761      0.26454894      1.47432883     -2.52802052      1.37292290      3.60915381
 Si              7.54336738      1.97714736      3.62755028     -0.09355202      0.08645399      0.19089688      14      -1       0      -1      31     -0.15958553      0.67359717      0.63206695      0.42518897      0.23360389      0.06908639     -0.13029994     -0.51032872      0.45018184      1.05337497
 Si              5.74971146      3.17664287     -0.29987245     -0.27757497     -0.08248976     -0.00637794      14      -1       0       0      28     -0.40851971      1.43437453     -1.27383563      0.49948995     -1.52716531      2.10075872     -0.08911714     -0.07511592      0.06975530     -0.29493872
 Si              7.48142505      4.47916369      0.34770905      0.05012149      0.09457640      0.00448003      14      -1      -1       0      30     -0.17334933      0.62638131     -0.90978344      0.09143550     -0.01498625      1.12045897      0.16485409      0.10664319      0.07368606     -0.03852040
 Si              7.55258876      4.40946141      2.88414249     -0.10057457      0.05791049     -0.07780349      14       0      -1       0      28      0.00000359      0.01508440      0.02827847     -0.00735824      0.02270815      0.03160524     -0.18841460     -0.00068987     -0.06958510      0.02014957
 Si              9.25210647      5.36723438      3.66901501     -0.02570643      0.03290883      0.06731534      14      -1      -1      -1      28      0.01728062      0.18017131      0.04021135      0.00031299      0.03404939      0.37440391      0.14575086      0.02492117      0.23414587      0.37285317
 P               0.52730759      0.30723779      0.21968310     -0.82320422     -0.50405770     -0.26042563      15       0       0       0      33     11.47849919    -27.36857086      0.55909410     -1.19365210      0.58822049    -24.78425778     -0.81596933     -1.93340102     -1.24868045    -29.81150055
 15
 config_type=P_vac_migration virial="0.10389690      -1.40346078      -0.44673921      -1.40346078      -1.73790479       0.60811363      -0.44673921       0.60811363       1.30839605" energy=-6.3393332832774503 cutoff=5.00000000 nneightol=1.20000000 pbc="T T T" Lattice="7.54623411      -0.13986239      -0.10309648       3.74947689       6.58446472      -0.18044236       3.75846414       2.11150272       6.16956216" Properties=species:S:1:pos:R:3:force:R:3:Z:I:1:map_shift:I:3:n_neighb:I:1:local_energy:R:1:local_virial:R:9
 Si              1.71071286      0.95913552      2.92235034     -0.61832604     -0.31151511     -0.55909793      14       0       0       0      31     -2.37725419      0.60931666      0.45036512      2.63227756      0.60472584      0.22600442      2.15578317      4.64013716      3.33987238      8.20561311
 Si              3.71040529      1.82614477      3.85600035      0.43569475      0.09850603      1.02093010      14       0       0      -1      31     -3.01588968      0.27346006      0.41869944      0.14357894      0.25893982      0.83306120     -0.47852113      3.47498499      2.29625835      7.87977305
 Si              1.76605470      3.18995970     -0.26358003     -0.37712219     -0.28318930      0.06119962      14       0       0       0      31     -1.56697112      1.22045751      2.56539626     -0.26519605      2.88760071      8.79068836     -1.77278971     -0.39592195     -1.94777248      0.50571312
 Si              3.59191897      4.16432478      0.52751510      0.53379437      1.06968693      0.14760045      14       0      -1       0      31     -3.26321365     -0.30133794      2.06212789     -0.40844125      3.34154462      7.22465755     -0.12918894     -1.34938588     -2.61738232     -0.10380297
 Si              3.74595505      3.94470337      2.97459457     -0.10961416      0.12631414     -0.13232037      14       0       0       0      30     -0.22389971      0.23085089      0.34927344     -0.08377153      0.71362728      1.18891225     -0.11929522      0.06501958     -0.26534164      0.62752330
 Si              5.51268602      5.36457282      3.62403424      0.12242509     -0.01575145      0.06441488      14       0      -1      -1      30     -0.29731709      0.53360413     -0.35712725      0.97373061      0.19795961      0.10569148      0.06118000      0.94802313     -1.53402943      3.32118711
 Si              3.58109531     -0.34380086     -0.17329262     -0.53074594      0.02380113      0.03605387      14      -1       0       0      32     -2.14407981      8.79650871     -0.66816358     -1.57393241     -2.33199348     -0.21095532      0.49981876     -1.54460637      0.23339331      0.08576892
 Si              5.32138803      0.90432003      0.50909498      0.90513783     -0.06928560      0.35102912      14      -1       0       0      32     -2.24671411      8.61533702     -2.54739950     -1.54729071     -4.26046608      1.77454925      0.40812140     -2.26893056      0.49930091      0.46600870
 Si              5.60948659      0.98245322      3.07689296     -0.00364311     -0.07479554     -0.23162012      14       0       0      -1      30     -0.35073434      1.74792168     -0.08783478     -1.16976538     -0.45712864      0.11359195      0.82369370     -1.01886099      0.83288940      2.94795922
 Si              7.50124728      1.95290648      3.38082257     -0.10610025      0.11878049      0.17703574      14      -1       0      -1      30     -0.32234390      0.28479171      0.19488148      0.14778741     -0.45647285      1.11835521      1.76933554     -1.21268130      2.36178717      3.90901320
 Si              5.60373186      2.85885993     -0.01326713     -0.08221265      0.14031192     -0.10785136      14      -1       0       0      29     -0.22857778      1.44239367     -1.21946237      0.26866224     -1.02112088      2.82026324     -0.16878100     -0.04257775     -0.21371300     -0.22919071
 Si              7.51532671      4.23172708      0.50709338      0.09786144     -0.05164685      0.03993563      14      -1      -1       0      30     -0.16059076      0.90322862     -0.76774579      0.14639540      0.06660027      0.59551199      0.09873252     -0.08333587      0.20638923     -0.00310024
 Si              7.49341632      4.35760494      2.92631161     -0.07317483      0.06670691     -0.00566750      14       0      -1       0      28      0.00602114     -0.00110769     -0.01761278      0.07683325     -0.12095480      0.04931819     -0.08718251      0.10926630     -0.05750168      0.08797755
 Si              9.48940799      5.33473204      3.47403384      0.02637224      0.08624465     -0.20267424      14      -1      -1      -1      28     -0.02872033      0.56485733      0.19313278     -0.23991224      0.27323423      0.33639357     -0.12433445     -0.22112102     -0.04374032      0.84458935
 P               0.62847034      0.15204434      0.37623918     -0.22034657     -0.92416835     -0.65896789      15       0       0       0      33      9.88095205    -24.81638547     -1.97199113      0.45230494     -1.09955644    -26.70394812     -2.32845852     -1.54674868     -2.48229625    -27.23663666
 15
 config_type=P_vac_migration virial="1.35817006      -0.35562804      -0.35731081      -0.35562804      -2.07272877       0.72640114      -0.35731081       0.72640114      -0.36793946" energy=-6.4528908427885083 cutoff=5.00000000 nneightol=1.20000000 pbc="T T T" Lattice="7.59736528      -0.13864535      -0.10256182       3.78166038       6.56409439      -0.17899985       3.75223395       2.10039794       6.22224109" Properties=species:S:1:pos:R:3:force:R:3:Z:I:1:map_shift:I:3:n_neighb:I:1:local_energy:R:1:local_virial:R:9
 Si              1.90843333      0.81427588      2.97301662     -0.49187162     -0.08567727     -0.23385416      14       0       0       0      31     -1.93627516      1.66964347      0.87881138      3.50870741      0.47693722      0.12388104      0.79942287      4.44793157      1.66492478      7.57392346
 Si              3.62892410      1.73692272      3.92817184      0.37727006      0.48028390      0.61752216      14       0       0      -1      31     -3.18581074      0.53965848      0.38240722      1.09897619      0.39026725      0.79759197      0.73802882      3.46397093      3.66215025      8.30902209
 Si              1.78473181      3.22207779     -0.21249208     -0.56108254     -0.46643255     -0.03260410      14       0       0       0      31     -1.93980344      0.70753648      2.63839634     -0.40304183      3.61939875      7.60492783     -1.22384219     -0.82767589     -1.77926605      0.14028963
 Si              3.72342418      4.28291439      0.61722646      0.22748784      0.67484386      0.04805748      14       0      -1       0      31     -3.09345677      0.24718045      0.54065925      0.05993135      3.16027823      7.06259317     -0.18535701     -0.94606071     -2.58191970     -0.14836402
 Si              3.51603300      4.20938791      3.05173537     -0.08440592      0.13555306     -0.04974223      14       0       0      -1      30     -0.45321538      0.21345029     -0.21488562      0.69497058      0.05195113      0.62869199     -0.91140779      0.91611726     -2.02435320      3.87746621
 Si              5.50346151      5.41754251      3.73753598      0.03551434     -0.00130947     -0.02713752      14       0      -1      -1      29     -0.13980797      0.12740237     -0.08445504      0.46631053      0.23029917     -0.39279981      0.71925314      0.53395568      0.75147591     -0.32979015
 Si              3.67815105     -0.17148841     -0.13257449     -0.24430687      0.10720304     -0.04665114      14       0       0       0      32     -1.66373137      9.93322025     -0.93615141     -0.54207767     -2.04423418      0.30511327      0.13662479     -1.29771894      0.17028380     -0.07946808
 Si              5.48087719      0.81176300      0.70371693      1.15942409      0.16702436     -0.00625549      14      -1       0       0      30     -3.07934544      9.38837350     -1.40832228     -1.79500685     -4.19007355      0.36392253      0.46578317     -3.40800866      0.20367370      1.52364163
 Si              5.75606600      0.90150135      3.02776935     -0.18328482     -0.04952563      0.16779279      14      -1       0       0      30     -0.49181123      2.28471030     -0.35431360     -2.67296583     -0.83983264      0.24880089      1.36660503     -1.82760710      0.93087717      3.07607802
 Si              7.15819612      1.97787776      3.73851607      0.25606601      0.14022875     -0.23223461      14      -1       0      -1      32     -0.41957768      1.60461024     -0.21548358     -1.55943242      0.09385076      0.29663563      0.88621822     -0.98823213      1.19472760      2.23166477
 Si              5.66327215      3.01278734     -0.02445271     -0.00579557      0.19855387     -0.05833485      14      -1       0       0      29     -0.61342901      3.57078963     -3.89717130      0.41819671     -2.59194119      3.17927833     -0.29455877     -0.27769828      0.25482783     -0.19803213
 Si              7.47123915      4.27959860      0.29980453     -0.03595552      0.05321848      0.03149293      14      -1      -1       0      31     -0.17723253      1.16025443      0.09656579      0.02785392      0.15726414     -0.77647571     -0.03137384     -0.06955628     -0.39891229     -0.12519482