 16
 config_type=P_subs virial="1.41635954       0.19721083      -0.31327860       0.19721083       0.08672924       0.85150263      -0.31327860       0.85150263       0.37192894" energy=-7.9700078776001044 cutoff=5.00000000 nneightol=1.20000000 pbc="T T T" Lattice="7.56659420      -0.15011368      -0.18512703       3.77015621       6.60021390      -0.11594206       3.73284512       2.14109331       6.14396549" Properties=species:S:1:pos:R:3:force:R:3:Z:I:1:map_shift:I:3:n_neighb:I:1:local_energy:R:1:local_virial:R:9
 Si              1.83336795      0.98699720      0.72866749      0.81845830      0.46401585      0.31112790      14       0       0       0      32     -5.70650849      9.72523610      4.95808440      2.90227211      4.53670559      3.93689838      1.79133011      3.25437453      2.14936081      2.71383771
 Si              1.75370148      0.90982832      3.06023546     -0.06632247     -0.07296578      0.22965658      14       0       0       0      33     -0.91244013      2.10133005      1.40790096      3.90572642      1.37943193      0.41392576      2.04383995      3.53217387      1.98646118      6.71711602
 Si              3.54374386      2.11215988      3.75420100      0.08038911     -0.01905480     -0.04469016      14       0       0      -1      32     -5.05177529      1.57266512      0.06855033      0.70897825      0.07019435      1.42342969      0.09302759      1.34351115     -0.10222131     14.91707747
 Si              1.81221629      3.29739286     -0.12293601     -0.20700932     -0.05834697     -0.10798007      14       0      -1       0      33     -0.72216423      2.01201818      3.44371911      0.08552139      3.98920725      6.59236657     -0.08270681     -0.01475676     -0.28795270     -0.20443523
 Si              3.66790186      4.24613881      0.64654429      0.03769184      0.11143926     -0.02729737      14       0      -1       0      34     -4.86847905      1.71971733      0.24483792     -0.04250861      0.64033437     12.94352705     -3.61057902     -0.17248138     -3.79475079      2.72228990
 Si              3.55152580      4.29310599      2.89989548     -0.05961857      0.10576023      0.18648050      14       0       0       0      33     -0.51319823     -0.15231345      0.18278565     -0.12667288      0.31354922      2.50293748     -3.55931834     -0.04413704     -2.98171570      4.67919894
 Si              5.58505036      5.35055963      3.65131465      0.11993664      0.00167150     -0.00048207      14       0      -1      -1      33     -0.01622663      0.43520250      0.10361261      0.43906922      0.11417480      0.57233532     -0.31330686      0.38280201     -0.30056035      1.01955430
 Si              3.61773003     -0.21409147     -0.28623407      0.13726237     -0.08965070     -0.15673877      14       0       0       0      33     -0.85655788      8.35401809     -0.73827438     -0.63247037     -0.42575722     -0.00291093      0.25444077     -0.32291900      0.33924149     -0.03617485
 Si              5.53203686      0.82162471      0.58467175     -0.25142099      0.22596422      0.11059686      14      -1       0       0      33     -5.21034647     10.93672737     -4.77863921     -3.12357599     -5.18962360      3.76989523      2.01869849     -3.82832248      2.21977868      2.70586815
 Si              5.46665956      0.97736994      2.92502568      0.19409733     -0.11861614      0.06702157      14       0       0       0      33     -0.49070421      1.78024944     -0.99771443     -2.42330795     -0.88514945      0.32293505      1.40631588     -2.35628863      1.64124484      4.37035996
 Si              7.36702764      1.94007057      3.58595118      0.05710459      0.05869975     -0.07806971      14      -1       0      -1      34     -0.02036830      0.56058810      0.00348323     -0.17078238     -0.04531100      0.29259539      0.47504734     -0.27612689      0.39169194      0.81956574
 Si              5.56198415      3.17876570     -0.11002537      0.19513907     -0.03558965     -0.04977006      14       0       0       0      33     -0.53097541      1.66119616     -2.78862859     -0.15886188     -3.03185082      5.30722698      0.02369874     -0.11477160     -0.10596120     -0.10776195
 Si              7.59547381      4.27290105      0.52064838      0.06835057      0.05779246      0.07498091      14      -1      -1       0      32     -0.00881976      1.02603935      0.26780851     -0.18694060      0.29335607      0.83883532     -0.07526344     -0.24902049     -0.11114192      0.02895886
 Si              7.45474785      4.22438000      2.76691083      0.00876195      0.02528483     -0.08329959      14      -1       0       0      33      0.00000000     -0.15541591      0.04534251     -0.03042323      0.03733158     -0.08691703      0.07352285     -0.01693727      0.08032780     -0.06357267
 Si              9.31198652      5.17493723      3.66213693     -0.00583709     -0.12475211      0.00891293      14      -1      -1      -1      32      0.00993533      0.30223596     -0.20978469     -0.01656256     -0.20181563      0.49717091     -0.10208662     -0.04633511     -0.07471306      0.41119691
 P              -0.02240905     -0.04515736      0.01067859     -1.12698333     -0.53165197     -0.44044947      15       0       0       0      33     16.92862087    -40.46313483     -1.01587310     -1.44273955     -1.39756660    -39.23752195      0.41484198     -1.38404351     -0.19758706    -40.32115030
 16
 config_type=P_subs virial="-0.78055746      -0.75891958      -1.01162275      -0.75891958       1.12242516      -0.06458766      -1.01162275      -0.06458766       5.49858365" energy=-7.8742225253883591 cutoff=5.00000000 nneightol=1.20000000 pbc="T T T" Lattice="7.63935612      -0.10612354      -0.19303872       3.77480665       6.55011846      -0.13261826       3.75212229       2.08552331       6.14491794" Properties=species:S:1:pos:R:3:force:R:3:Z:I:1:map_shift:I:3:n_neighb:I:1:local_energy:R:1:local_virial:R:9
 Si              1.96366513      1.02062927      0.65621177      0.01326348      0.16022719      0.27108029      14       0       0       0      31     -5.04962459     11.25159139      4.81045334      2.94459542      5.47133019      3.74580771      1.65103405      3.33439969      1.63479743      1.98024998
 Si              1.82685789      0.97290856      3.09863989     -0.11743903     -0.13439032      0.04300522      14       0       0      -1      32     -0.95734560      2.30214094      1.51557542      3.75801450      1.49769442      0.24106954      2.03018590      3.75900432      2.26233543      6.22736588
 Si              3.70731511      2.03732328      3.98958653     -0.01946560     -0.13341600     -2.08854550      14       0       0      -1      32     -6.18391396      1.73392311      0.45107697      0.64228167      0.40957078      1.60519450     -0.76296791     -0.64175699     -1.09860780     17.25723401
 Si              1.95004200      3.25992159     -0.08192068     -0.30999304     -0.14271662     -0.17207194      14       0       0       0      32     -0.67805100      1.93066503      3.23538185      0.17330463      3.77174480      5.94466428     -0.19060965      0.02096771     -0.68459190     -0.52300219
 Si              3.83815007      4.27216406      0.58118562     -0.13041577     -0.19296522      0.16619509      14       0      -1       0      32     -5.16767454      1.65260183     -0.56701138      0.31306986     -1.97963930     13.14631157     -3.89594780      0.74096075     -3.72358925      2.35850623
 Si              3.83388581      4.25957638      3.08997427      0.02992157      0.20113789      0.01437322      14       0       0      -1      32     -0.70832756     -0.25635232      0.21433176     -0.03547244      0.12278651      3.00096438     -3.55375295     -0.17599907     -3.81609870      5.08699581
 Si              5.76386110      5.48245407      3.92586187      0.21417566      0.03238172      0.12258088      14       0      -1      -1      32     -0.13577027      0.36654847      0.60980619      0.36107773      0.87642184      1.51050117      0.82343432      0.49020860      0.78632942      0.75853087
 Si              3.76905963     -0.08062600     -0.23401088     -0.06127608     -0.17377019     -0.13391292      14      -1       0       0      32     -0.62643910      6.33355985      0.02527202      0.45304745     -0.44985265     -0.15808608      0.29627566     -0.24951851      0.37393145     -0.12920122
 Si              5.71727340      0.91173669      0.73160098     -0.88935144      0.57516645      0.22595956      14      -1       0       0      32     -5.79557384      8.84612542     -5.00911857     -4.21604506     -4.44999002      4.13105125      2.84420565     -3.34087859      2.63171187      3.60176406
 Si              5.84931672      0.91900200      3.14915772     -0.13129947      0.03755501      0.21533307      14      -1       0      -1      32     -0.65192550      2.15172756     -1.28228502     -2.90041300     -1.09105147      0.55580562      1.84753523     -2.40840511      1.68745784      4.67784282
 Si              7.63334004      2.11216605      3.80321331      0.05613829      0.11728054      0.10396250      14      -1       0      -1      32     -0.05030345      0.39197714     -0.10237742      0.02608901     -0.21088076      0.10840797      0.08320443      0.11837547      0.11393390      0.45232189
 Si              5.80849292      3.29929752     -0.07561209      0.05788810      0.03235121     -0.04117078      14      -1      -1       0      32     -0.63810910      1.61010335     -2.76215569     -0.28725134     -2.88978583      5.41591024      0.06376638     -0.17630465      0.18337128     -0.18452880
 Si              7.81703817      4.44577626      0.69214854      0.17030566      0.14395328      0.16626281      14      -1      -1       0      32     -0.12573097      1.42994587      0.80520151     -0.54939667      1.01021327      0.82235780     -0.31432633     -0.74380417     -0.35195315      0.18691539
 Si              7.62323214      4.30015139      3.07042634      0.02930614      0.03169913      0.00125763      14       0       0      -1      32      0.00000000     -0.09084055     -0.02645320      0.01807181     -0.00564234     -0.21546524      0.14074613      0.03175569      0.12362244     -0.24281873
 Si              9.59480526      5.49885721      3.97497772     -0.02440633     -0.00023405     -0.03174181      14      -1      -1      -1      31     -0.02334522      0.54237190     -0.62344618     -0.27258306     -0.68096014      1.15721595      0.30603474     -0.39024326      0.32672265      0.61405664
 P              -0.13496823     -0.00752612      0.01973334      1.11264784     -0.55426003      1.13743270      15       0       0       0      32     18.91791218    -40.97664644     -2.05317118     -1.44001324     -2.16087890    -39.88928551     -1.43340552     -1.38038461     -0.51396056    -36.62364900
 16
 config_type=P_subs virial="0.67334211      -0.59565681      -0.65348561      -0.59565681       1.55195026       0.92346854      -0.65348561       0.92346854       5.58646735" energy=-7.8154570644989407 cutoff=5.00000000 nneightol=1.20000000 pbc="T T T" Lattice="7.61747219      -0.12002130      -0.17121814       3.75307619       6.58587433      -0.19241610       3.77166029       2.13627376       6.22175732" Properties=species:S:1:pos:R:3:force:R:3:Z:I:1:map_shift:I:3:n_neighb:I:1:local_energy:R:1:local_virial:R:9
 Si              1.83835980      0.93011903      0.79577848      0.36992568      0.54385110      0.31149581      14       0       0       0      32     -5.43638755     11.79855125      4.67823829      3.94442363      5.03407851      3.15561308      2.23125599      4.17585286      2.18955118      3.18383646
 Si              1.78119406      0.96791937      3.17522693      0.00294273     -0.04726021      0.06980240      14       0       0      -1      32     -0.89967138      2.03623037      1.45975640      3.28227750      1.47390145      0.36914470      1.93420194      3.62729862      2.27092046      5.64373342
 Si              3.84362916      2.23886609      4.01225241     -0.32092016     -0.34869723     -1.88521284      14       0       0      -1      33     -6.06272942     -0.00083143     -0.06418983     -0.58236988     -0.03457745      1.11015228     -1.16514849     -1.39569220     -1.32695066     16.60090720
 Si              1.85442118      3.27542799     -0.24163848     -0.13823760     -0.22092465      0.01751156      14       0      -1       0      33     -0.77709986      2.39876631      4.07592974      0.21154014      4.78659297      7.83940350      0.11225409      0.12585468     -0.30803068     -0.02885442
 Si              3.70881640      4.29126967      0.57498789     -0.13775594     -0.13802970      0.06100495      14       0      -1       0      31     -5.09550423      1.29236046      0.48251821      0.26289185     -0.88399479     12.57812312     -4.53752271      0.69880355     -3.56766543      2.74347805
 Si              3.80692644      4.37639784      3.06336043     -0.05652387      0.25205086      0.09808491      14       0       0      -1      33     -0.52607080     -0.22062168      0.08319429      0.02648520     -0.13013467      2.21626413     -2.72316131      0.15844983     -2.53177864      3.61425369
 Si              5.63083976      5.56788194      3.77952565      0.07758546      0.01677190     -0.07568913      14       0      -1      -1      31     -0.07593547      0.29993487      0.34484583      0.33249749      0.51544889      0.96213210      0.43911559      0.47594449      0.45919533      0.84460672
 Si              3.67372700     -0.00749855     -0.19658286      0.06223620     -0.28196271     -0.14221002      14       0       0       0      33     -0.66658222      9.03070598     -0.10536796      0.25980704     -0.38905727     -0.12137584      0.24070029      0.03352738      0.31954934      0.12979107
 Si              5.66701447      0.92924912      0.64470718     -0.80425636      0.40264070      0.21695402      14      -1       0       0      31     -5.65325553      9.47008111     -5.36333087     -4.07854369     -4.96613566      5.02720814      2.86238018     -3.43520796      2.66252063      3.72455852
 Si              5.82377444      0.97904307      3.02770703     -0.01796606      0.02415418      0.27953621      14      -1       0      -1      33     -0.62292152      1.67506714     -1.28336232     -3.03514480     -0.90552178      0.41274665      1.74245884     -2.02196637      1.55942111      4.51841903
 Si              7.68490898      2.11272832      3.77796162      0.08358433      0.10720880     -0.01606035      14      -1       0      -1      31     -0.05057500      0.34390658     -0.06704576      0.21382959     -0.18984122      0.10135882      0.04004556      0.38619993      0.13191022      0.53596908
 Si              5.76892093      3.16789951     -0.00452541      0.10947406      0.24939928     -0.01529990      14      -1       0       0      32     -0.60914679      1.16986337     -2.58209379     -0.19402562     -1.84426775      4.24118201     -0.29662908     -0.09364410     -0.07732706     -0.31677213
 Si              7.73320219      4.37996758      0.68757343      0.15707744      0.15862080      0.10683403      14      -1      -1       0      33     -0.06156625      0.62847718      0.40323083     -0.35356425      0.44778582      0.46270408     -0.13574929     -0.45910395     -0.16866281      0.09301668
 Si              7.56886900      4.44428309      3.06992409      0.01374125      0.01791946     -0.06589856      14       0      -1      -1      31      0.00000000     -0.16162655     -0.00175527      0.02186099      0.06034886     -0.18705635      0.15076380      0.08474465      0.12348035     -0.18100275
 Si              9.45708062      5.63499275      3.93558820     -0.00193262     -0.04344521     -0.05904353      14      -1      -1      -1      32     -0.03494515      0.50648321     -0.65273582     -0.36771289     -0.98638881      1.28948244      0.73340225     -0.54419545      0.66956881      0.70664899
 P              -0.14149225     -0.01958076     -0.02317883      0.60102546     -0.69229736      1.09819045      15       0       0       0      31     18.75693410    -39.59400607     -2.00348876     -0.59773791     -2.58389391    -37.90513261     -0.70489909     -2.47035157     -1.48223363    -36.22612226
 16
 config_type=P_subs virial="-0.87475146      -0.74336384      -0.71074986      -0.74336384       3.24923743      -1.23983338      -0.71074986      -1.23983338       0.59762792" energy=-7.7386124609631652 cutoff=5.00000000 nneightol=1.20000000 pbc="T T T" Lattice="7.56196994      -0.11041326      -0.10614938       3.73210099       6.52736987      -0.15521489       3.70034195       2.14224422       6.14556633" Properties=species:S:1:pos:R:3:force:R:3:Z:I:1:map_shift:I:3:n_neighb:I:1:local_energy:R:1:local_virial:R:9
 Si              1.94450383      1.06177371      0.81562666     -0.65632079     -0.20915016     -0.26046894      14       0       0       0      33     -4.52749207      9.86379540      4.16176306      3.01866220      5.17352323      3.71146634      1.95344311      3.67258664      1.93365156      2.80487481
 Si              1.83553916      1.11938177      3.03833182     -0.21358930     -0.06013998      0.03117636      14       0       0       0      33     -0.74603793      2.28092407      1.52343657      3.72989600      1.59290809      0.35738783      2.11624278      4.38534893      2.21056319      6.94317657
 Si              3.79668931      2.04477550      3.78388477     -0.15471864      0.14856973      0.05024189      14       0       0      -1      33     -5.00690595      1.72771544      0.02386264     -0.98144514     -0.03389158      1.24272950      0.11134010     -2.61307885     -0.43492847     14.15615003
 Si              1.87366355      3.28937986     -0.03641013     -0.28176575     -0.19953905     -0.08660392      14       0      -1       0      34     -0.98685010      2.17455682      3.72446421      0.27898435      4.62613622      6.77136443     -0.01349485      0.09990796     -0.34550798     -0.27314573
 Si              3.86190949      4.40498516      0.68581971     -0.17483071     -1.87366966      0.77231183      14       0      -1       0      33     -5.90850885      1.72355905     -0.46880515      0.16930015     -2.84025797     13.42613966     -4.82737998      1.06756250     -4.45595075      3.24086870
 Si              3.73878979      4.42528739      3.11651845      0.06637069      0.07351342      0.09303566      14       0      -1      -1      33     -0.72945950     -0.10201002      0.04878689      0.02674031     -0.10721324      2.45882381     -3.34014402     -0.08049039     -3.57426082      5.52432234
 Si              5.52731596      5.38069624      3.85108919      0.07271525     -0.06760553     -0.02149798      14       0      -1      -1      34     -0.05798409      0.14995946      0.13814036      0.02825136      0.29020212      0.58666143     -0.03741103      0.07897877     -0.10831947      0.43619119
 Si              3.84310686     -0.09586817     -0.05413531     -0.38352918     -0.22718187     -0.16709802      14      -1       0       0      33     -0.80605012      8.53143682      0.14854117      0.23897770     -0.67542000     -0.06445923      0.25642763     -0.15650612      0.31643174     -0.37060487
 Si              5.56919723      0.95957550      0.63999595     -0.43478521      0.21488672      0.27509200      14      -1       0       0      34     -5.37131296      7.32492967     -5.61660434     -3.21156500     -4.56737840      5.39416019      2.17181264     -2.67600667      2.24600796      2.77335666
 Si              5.74919421      1.03995491      3.09184158      0.16103127      0.05978128      0.14854194      14      -1       0      -1      34     -0.63239120      1.42656757     -1.16983612     -2.63379763     -0.92154622      0.36361028      1.63906507     -2.56008085      1.51168806      4.67834826
 Si              7.57956585      2.13563466      3.87810769      0.03902619      0.12902757      0.06360462      14      -1       0      -1      33     -0.11073528      1.08530422     -0.13237853      0.54743013     -0.22593975      0.07227094     -0.00757891      0.51159385      0.04604470      0.58999131
 Si              5.63231909      3.11535964     -0.08133491      0.14803763      0.35774640     -0.27388034      14      -1       0       0      33     -0.65135722      2.17724646     -3.51462938     -0.13711666     -2.78016824      5.54045810     -0.07993273     -0.15408539      0.12580758     -0.10986884
 Si              7.58758002      4.40726608      0.63634102      0.02094854      0.07215428      0.09070516      14      -1      -1       0      33     -0.08122533      0.50230361     -0.02795035     -0.07659844     -0.04627357      0.33688412     -0.12277808     -0.08274899     -0.09674181      0.01022302
 Si              7.61136860      4.43035828      2.98403637      0.02925857      0.02307461     -0.01587370      14      -1      -1      -1      32      0.00000000     -0.20569752      0.02922196     -0.12774445      0.05119828      0.10079798      0.01276984     -0.09757972      0.02383598     -0.26745710
 Si              9.38899674      5.37361561      3.89226506     -0.04092589      0.04784949      0.11944371      14      -1      -1      -1      33     -0.01310335      0.38666076     -0.31221714     -0.16714470     -0.35160759      0.72437106     -0.16453540     -0.24042340     -0.13260913      0.55074528
 P              -0.16676556     -0.10958676      0.02807225      1.80307735      1.51068277     -0.81873028      15       0       0       0      32     17.89080149    -39.92200326      0.70084030     -1.41358004      0.07236476    -37.77342902     -0.90767956     -1.86572815     -0.50554573    -40.08954372
 16
 config_type=P_subs virial="1.47409538      -2.09588319      -2.02892770      -2.09588319       0.97927488       1.12470712      -2.02892770       1.12470712       2.91174559" energy=-7.7814250353628234 cutoff=5.00000000 nneightol=1.20000000 pbc="T T T" Lattice="7.63531963      -0.19504386      -0.11840120       3.70015139       6.58711536      -0.17238723       3.72757119       2.06308316       6.22622315" Properties=species:S:1:pos:R:3:force:R:3:Z:I:1:map_shift:I:3:n_neighb:I:1:local_energy:R:1:local_virial:R:9
 Si              1.96851737      1.02404319      0.69505315     -0.47170410      0.06523254      0.04624520      14       0       0       0      32     -4.71755160     10.37168150      4.42104186      2.53974490      4.92660964      3.51548924      1.46714659      3.27293447      1.67170800      2.01912049
 Si              1.89402047      1.07311806      3.10702397     -0.21466806     -0.16488356     -0.11476817      14       0       0       0      33     -0.81636968      1.78889803      1.43586366      3.26524219      1.36164477      0.30167075      1.77080108      3.77741265      2.19432711      6.38322735
 Si              3.74073140      2.16112628      3.94996562     -0.24263959     -0.10238776     -0.76460782      14       0       0      -1      32     -5.48558944      1.16484875      0.13678120     -0.22398461      0.18927614      1.23642216     -0.41280223     -1.97873717     -1.22155017     14.92569271
 Si              1.78316181      3.33536985     -0.10962904     -0.20850763     -0.20910208     -0.03785541      14       0      -1       0      33     -0.86089479      1.79525430      3.52114691      0.20909744      4.37518022      7.00840487     -0.14487245      0.00976416     -0.55618443     -0.23412455
 Si              3.82130487      4.29600523      0.58595150     -0.34107587     -0.10318366      0.21000861      14       0      -1       0      31     -5.15039336      1.52366450     -0.58636278      0.34261396     -2.71299493     12.49652414     -4.00718272      0.98874880     -3.46474679      2.15905213
 Si              3.84176504      4.40320441      3.14688077      0.01610382      0.08196597     -0.00112744      14       0      -1      -1      31     -0.51101752     -0.12974964      0.08991255      0.09932135     -0.03007893      2.05332830     -2.60048635     -0.07437350     -2.60315918      3.70927232
 Si              5.64122173      5.40805275      3.88429311      0.07685985     -0.04410069      0.01005799      14       0      -1      -1      31     -0.08465765      0.14204215      0.25720796      0.10293831      0.38055813      0.76978917      0.27408908      0.17953726      0.29790859      0.49192955
 Si              3.72424683     -0.03450958     -0.14417760     -0.01938836     -0.23992059     -0.12983578      14       0       0       0      31     -0.58745501      7.18841288     -0.17116675      0.17707901     -0.25012217     -0.24445917      0.24694786     -0.28399923      0.38180655     -0.15580000
 Si              5.80871842      0.87075188      0.72118365     -1.65174063      0.88136935      0.56345388      14      -1       0       0      31     -6.10102304      9.08406280     -6.31722461     -4.97866657     -4.73980058      5.45126006      3.52161680     -3.64275854      3.40582291      3.89659206
 Si              5.73272755      0.99730914      3.12707878      0.13981714     -0.03606037      0.20526731      14       0       0      -1      33     -0.60247128      1.60596075     -1.02545154     -2.34053327     -0.87321571      0.33399641      1.38535274     -2.52880861      1.48343572      4.46528332
 Si              7.77111490      2.10913856      3.83447847      0.08768045      0.14088685      0.04402930      14      -1       0      -1      31     -0.09248432      0.86340429     -0.17746993      0.60240220     -0.30203696      0.01536317      0.00465298      0.72866415      0.06239139      0.57649505
 Si              5.75116469      3.22457430     -0.10531323      0.15436465      0.11594153     -0.13439927      14      -1      -1       0      33     -0.49583552      0.71303923     -1.68755965     -0.02425198     -1.87692130      3.65164753     -0.34013623      0.09119621     -0.32318782     -0.11840725
 Si              7.69761436      4.33417513      0.66178875      0.00505540      0.10676963      0.09537300      14      -1      -1       0      32     -0.09577495      0.82616074      0.50150200     -0.34711345      0.46752756      0.50860548     -0.14043600     -0.39861130     -0.14981335      0.09396759
 Si              7.69622608      4.41882665      3.11206134      0.05271620      0.03511657     -0.04881369      14       0      -1      -1      31      0.00000000     -0.02838833     -0.03321891     -0.00314278     -0.01399381     -0.11510853      0.15353776      0.04533259      0.11833288      0.07217958
 Si              9.68529874      5.41124924      3.95469880     -0.08271084     -0.05335788      0.11874393      14      -1      -1      -1      32      0.01081200      0.43168711     -0.22801908     -0.15013971     -0.22630513      0.63003519     -0.05922933     -0.20419234     -0.05114785      0.60030204
 P              -0.17654527     -0.06074981      0.00956233      2.69983756     -0.47428585     -0.06177166      15       0       0       0      31     17.80928114    -35.86688371     -2.23286609     -1.29953470     -2.77121015    -36.63369391      0.00570753     -2.01103729     -0.12123644    -35.97303679
 16
 config_type=P_subs virial="2.38073771      -0.00778038       0.42111927      -0.00778038       1.23932967       0.07555286       0.42111927       0.07555286       3.53840870" energy=-7.9340600376504229 cutoff=5.00000000 nneightol=1.20000000 pbc="T T T" Lattice="7.64574103      -0.17327851      -0.10057267       3.78397145       6.50980405      -0.19978837       3.72083396       2.04437791       6.15216120" Properties=species:S:1:pos:R:3:force:R:3:Z:I:1:map_shift:I:3:n_neighb:I:1:local_energy:R:1:local_virial:R:9
 Si              1.86810869      1.00550653      0.61933074      1.18103555      0.68826352      0.58683525      14       0       0       0      31     -5.69278577     11.56168805      5.82340776      4.31533788      5.55275217      4.75566798      2.29669336      4.03199473      2.24218693      2.92812047
 Si              1.89289939      0.94895394      2.94424852     -0.20988280     -0.13386282      0.28682410      14       0       0       0      33     -0.94988624      2.19508861      1.59021150      4.18246351      1.60549011      0.46452573      2.26650625      4.07432109      2.37695807      7.07399063
 Si              3.72529146      2.03951137      3.83872231     -0.04714531     -0.08569835     -1.29288605      14       0       0      -1      32     -5.71348344      1.70070580      0.13915490      0.33749208      0.14093360      1.46932215      0.07932654     -0.29320096     -0.49016949     14.66098773
 Si              2.02414494      3.19023531     -0.08111277     -0.29056444      0.03446215     -0.20715640      14       0       0       0      32     -0.67530880      2.05894503      3.62682931     -0.04521335      3.91921288      6.95602481     -0.53467690     -0.28724254     -0.97489589     -0.27606040
 Si              3.77047874      4.22782733      0.67107967      0.03598031      0.09165191     -0.19610105      14       0      -1       0      31     -4.76085605      1.65269292     -0.12197471     -0.14196156     -0.56308221     12.34504798     -5.23445345      0.04250311     -4.05310342      2.92465092
 Si              3.80320304      4.25184018      3.06311978     -0.03599005      0.25656981     -0.07669512      14       0       0      -1      33     -0.57697615     -0.13425952      0.20579575     -0.02215609      0.22627518      2.23858949     -2.27835062     -0.15696589     -2.96996872      3.65977747
 Si              5.81535482      5.39459107      3.76604254      0.16474879      0.01279908      0.01407380      14       0      -1      -1      32     -0.12643883      0.24830066      0.52448936      0.27347996      0.77888018      1.42058314      0.84819503      0.39063908      0.73435595      0.74607710