1
Lattice="20.0 0.0 0.0 0.0 20.0 0.0 0.0 0.0 20.0" Properties=species:S:1:pos:R:3:force:R:3:Z:I:1 pbc="T T T" config_type=isolated_atom energy=-0.0563881 virial="0.012863850172591408 0.0 -0.0 0.0 0.012863850172591408 -0.0 -0.0 -0.0 0.012863850172591408"
Si 10.0 10.0 10.0 0.0 0.0 0.0 14
15
Lattice="7.56311613909787 -0.1390180185849784 -0.10303045410862402 3.769512877212481 6.575673506707571 -0.1796285627098901 3.728357788268693 2.1162331091207847 6.197754909408754" Properties=species:S:1:pos:R:3:force:R:3:Z:I:1 pbc="T T T" config_type=P_vac energy=-76.74501766 virial="15.625259182049161 8.863471739899973 8.40207781652268 8.863471739899973 3.342000043275702 5.176326497015984 8.40207781652268 5.176326497015984 -3.818339148919863"
Si 1.68248442 0.89963462 2.97878433 0.15186772 0.51090191 -0.81739266 14
Si 3.55687954 1.94531597 3.83400222 0.69465617 0.12957084 -0.79806141 14
Si 1.73731732 3.25463498 -0.18858053 0.53286698 -1.63011872 -1.5349696 14
Si 3.64323202 4.17046607 0.48884146 1.25160753 1.21844237 0.94962944 14
Si 3.66470477 4.16680672 2.99480108 -1.57438717 -0.69282359 -1.42011315 14
Si 5.4230892 5.3619553 3.56462445 2.01935374 -0.60040567 1.0843181 14
Si 3.66259193 -0.16326345 -0.1692349 -1.51728358 0.46135723 -1.15398009 14
Si 5.46471383 0.84780168 0.63892005 1.21663361 0.10016923 -0.75341829 14
Si 5.63040805 0.93351546 2.89901533 -3.06705129 -2.19174294 0.90559131 14
Si 7.38346314 1.94201653 3.5583947 2.16006089 1.73633574 1.56790437 14
Si 5.70066802 3.02978523 -0.11127266 -1.0578344 0.76592103 -1.39003038 14
Si 7.57994062 4.28647969 0.38355041 -1.29884516 -0.10978925 1.88619383 14
Si 7.50656211 4.20897563 2.83950529 -2.36358142 -0.57447372 -1.0868031 14
Si 9.29547624 5.15890593 3.6097709 1.99672698 1.63916257 1.25104733 14
P -0.18585601 -0.00031096 -0.14610667 0.8552094 -0.76250705 1.3100843 15
15
Lattice="7.660027668116348 -0.15172593260403555 -0.16564485309534685 3.7649717456913367 6.590586007944128 -0.12023144996983148 3.703148271533892 2.095353469663075 6.188963925794171" Properties=species:S:1:pos:R:3:force:R:3:Z:I:1 pbc="T T T" config_type=P_vac energy=-77.22054 virial="0.8895388998519173 5.808955151951915 3.505342792113006 5.808955151951915 -4.3463775101384385 1.0826567675384848 3.505342792113006 1.0826567675384848 1.9657385812508572"
Si 1.75827441 0.97359057 0.74893044 1.84898927 0.84489626 -0.69174187 14
Si 1.69562418 0.94362794 3.07469628 0.52203618 -0.47928445 0.38423645 14
Si 3.7134856 2.05611357 3.72311619 -0.00482715 -1.31414534 0.33366047 14
Si 1.87361788 3.32005313 -0.13308471 -1.21502911 -0.79277559 0.03477141 14
Si 3.79871986 4.28191407 0.61766048 -0.00619825 -0.08647082 0.38972057 14
Si 3.67419572 4.2043149 2.96893518 -1.17469697 0.87712905 0.07291004 14
Si 5.5503332 5.22272536 3.72390005 0.00625338 1.46097657 0.50530642 14
Si 3.80132027 -0.25348406 -0.3442834 -1.14889255 -0.47818042 2.47570832 14
Si 5.57597546 0.90545454 0.50397321 0.68256876 -0.02808306 0.2294899 14
Si 5.62516335 0.81448141 2.85088608 -0.38719325 0.46305722 0.45851274 14
Si 7.48350676 1.96011257 3.67829432 -0.1848568 0.88591556 -2.17020476 14
Si 5.65200739 3.1617544 -0.18916104 0.98373377 0.24282221 0.38159336 14
Si 7.38239337 4.27770084 2.80204491 0.72902322 -1.34361735 -0.56602697 14
Si 9.33434089 5.2671418 3.67296031 0.50494135 -0.50922632 -0.72370401 14
P -0.01948462 -0.1156248 0.014083 -1.15585185 0.25698647 -1.11423205 15
15
Lattice="7.5904530427186225 -0.10554825908451664 -0.1246916269774299 3.707285350370114 6.556292537663229 -0.17470791428732502 3.716724069176757 2.132430541436567 6.217451826653834" Properties=species:S:1:pos:R:3:force:R:3:Z:I:1 pbc="T T T" config_type=P_vac energy=-77.08001766 virial="5.862857761569337 6.274903211438125 4.697321174303625 6.274903211438125 0.6452171969340712 2.7910646602707048 4.697321174303625 2.7910646602707048 -1.2892196173773849"
Si 1.84201921 0.89784043 0.73789888 0.02873855 0.6457972 -2.11948943 14
Si 1.69944423 0.95172001 2.91839133 1.10856762 -0.05728481 2.59270847 14
Si 3.64746865 2.10749402 3.81904034 0.44741554 -0.55473033 -1.13324911 14
Si 1.73389043 3.13010905 -0.16695779 -0.64670026 -0.62643884 -1.19940226 14
Si 3.58042896 4.18297653 0.50662149 1.60751463 0.44771576 0.10173535 14
Si 3.5318648 4.29479653 2.84507003 -0.38286599 -0.08764716 0.73221385 14
Si 5.46826074 5.32177125 3.61118847 0.21768363 -0.25159164 0.40843055 14
Si 3.74313988 -0.13786955 -0.17376591 -0.89975031 -0.83745896 -0.67926409 14
Si 5.47101152 1.00043766 0.57271786 2.04534239 1.31307791 0.00570752 14
Si 5.64104826 0.86123949 2.87698433 -1.34854687 0.26390827 0.78133168 14
Si 7.49260543 1.938838 3.69244049 -0.44181613 1.18502466 -0.25004718 14
Si 7.50678803 4.2425017 0.40129309 -0.80059674 -0.60298916 1.0006795 14
Si 7.46982188 4.24475026 2.88044248 -1.96715545 -1.45794178 -1.18026594 14
Si 9.17748417 5.29267678 3.68930617 2.36495286 0.89320454 0.87623054 14
P -0.04088901 -0.11599189 -0.06677213 -1.33278346 -0.27264563 0.06268055 15
15
Lattice="7.651599031149428 -0.183778260309801 -0.17664566482800254 3.7289333768893482 6.585919206571396 -0.10302407205165533 3.7567852226207976 2.124456961483055 6.23225983224308" Properties=species:S:1:pos:R:3:force:R:3:Z:I:1 pbc="T T T" config_type=P_vac energy=-77.9820955 virial="4.892777980419617 3.8005103147915453 1.904124293884621 3.8005103147915453 -6.948138503488708 3.4686718957054317 1.904124293884621 3.4686718957054317 -4.592606432302529"
Si 1.81550428 0.88776682 0.69447797 -0.6771658 1.29965414 -1.04416134 14
Si 1.79063448 0.87603196 3.00323167 -0.63981199 -0.54061353 0.30435582 14
Si 3.57911 1.97614992 3.85629223 1.94630737 0.57381853 -0.28129034 14
Si 1.83238389 3.25349789 -0.10303162 -0.17426665 -0.59017718 -0.32547078 14
Si 3.76728257 4.31630501 0.68529213 0.25621118 0.18390924 -0.78751396 14
Si 3.65883051 4.26186352 3.06715886 -2.22509061 -0.97950511 -0.59059436 14
Si 5.48490289 5.24413937 3.67799071 2.53903331 0.62049959 1.4084216 14
Si 3.65384095 -0.09459839 -0.19252759 1.33604519 -0.76578874 -0.40736941 14
Si 5.58799416 0.95371595 2.94266986 -0.54889068 -0.83691464 0.13318053 14
Si 7.60224729 1.90456232 3.6137899 -0.56868199 0.17643006 0.62002551 14
Si 5.64429089 2.99307513 -0.14630267 -0.16715352 0.37285385 0.63591053 14
Si 7.59643094 4.25034871 0.54880776 -0.30884549 -0.23779986 -0.54546281 14
Si 7.52559039 4.104603 2.86494758 -0.51840153 0.57832811 0.29860169 14
Si 9.36232328 5.20772363 3.74933893 0.35706338 0.75908619 -0.60166021 14
P -0.12392301 -0.01493505 -0.12432522 -0.60635215 -0.61378065 1.18302754 15
15
Lattice="7.618054355046248 -0.19979766969965929 -0.11753904994320069 3.780453606668893 6.598313398767712 -0.16141200129659733 3.698139785625701 2.136856874575145 6.196793354335996" Properties=species:S:1:pos:R:3:force:R:3:Z:I:1 pbc="T T T" config_type=P_vac energy=-77.44684248 virial="4.678627588876616 3.6453675035921558 3.814391456682489 3.6453675035921558 -2.261820750217956 3.058083518479863 3.814391456682489 3.058083518479863 -5.820528143650553"
Si 1.89924125 0.93954331 0.60879344 -0.68616721 1.4062521 0.90584387 14
Si 1.7319056 0.98096027 3.09769823 -0.31926209 -1.40646682 -1.44401613 14
Si 3.60327925 1.96276297 3.78777082 1.12479843 1.051244 0.71312925 14
Si 1.80344353 3.29779528 -0.13260051 0.09900967 -0.62174295 -0.15485997 14
Si 3.80244308 4.26258024 0.61071487 0.62890127 -0.04715749 -0.11279762 14
Si 3.51613146 4.19651901 3.00074218 0.02758476 0.61000659 -0.12474922 14
Si 5.44888967 5.34880068 3.71557351 0.11529593 -0.49501827 -0.06026732 14
Si 3.67345632 -0.17295863 -0.31750367 -0.22875087 -0.62938226 0.14391886 14
Si 5.4541246 0.7974768 0.61286339 1.54814845 1.00540329 0.31686535 14
Si 5.51372495 0.85377305 3.00729826 -0.29571211 -1.20294693 -0.35455377 14
Si 7.47157475 1.9056131 3.59882363 -0.57083653 0.60093295 -0.27154458 14
Si 7.52577118 4.3000517 0.41061753 -0.63543611 -0.78929678 0.88366093 14
Si 7.3653303 4.13141632 2.88204535 -0.51731593 0.55340227 -0.82149537 14
Si 9.22885308 5.16131591 3.73668234 0.80447323 0.58784852 0.35922423 14
P -0.05411198 -0.06187873 -0.02882797 -1.09473088 -0.62307821 0.02164149 15
15
Lattice="7.631608240042875 -0.12744168487591934 -0.1778936135148821 3.695399151291327 6.585476946106719 -0.15085516372516206 3.761427928120196 2.045840752657962 6.1475815167265875" Properties=species:S:1:pos:R:3:force:R:3:Z:I:1 pbc="T T T" config_type=P_vac energy=-77.40135871 virial="5.5796394184240174 3.968968322055384 2.5743105433428544 3.968968322055384 -1.313370913039805 1.9914876455685115 2.5743105433428544 1.9914876455685115 -0.21883600553124147"
Si 1.86671802 1.01011283 0.65709041 -0.15749703 -0.3810506 -0.18975878 14
Si 1.7309973 0.93552678 3.00290567 1.39697261 -0.76071045 -0.05663075 14
Si 3.69924486 2.02143684 3.79215025 0.03862619 0.68097392 -0.44141899 14
Si 1.77199778 3.16595894 -0.20410328 -0.19934836 0.45918509 -0.43347898 14
Si 3.69291123 4.21872785 0.58081764 -0.07632299 0.76182407 1.00009726 14
Si 5.43158516 5.24222583 3.55223963 -0.52731049 -0.41495759 -0.19934785 14
Si 3.70954483 -0.10373896 -0.32018278 -0.45310107 -1.07999041 0.07844768 14
Si 5.51060432 0.97782479 0.4385173 1.52776566 -0.1675675 1.58150944 14
Si 5.60476811 0.90295976 2.95886686 -0.76966435 -0.95816134 -1.16938433 14
Si 7.55223324 1.93814356 3.48292845 -0.78832127 1.22824469 0.57253721 14
Si 5.53122158 3.1664913 -0.27306662 1.30525599 0.40021465 -0.14200311 14
Si 7.59031712 4.26307454 0.47344947 -1.02282372 -0.07140819 -0.58939589 14
Si 7.45114295 4.2451492 2.80753236 -1.96649448 -1.4061816 -0.85122374 14
Si 9.20847674 5.18307912 3.5551755 2.54926018 1.65654712 0.58089549 14
P -0.01245356 -0.14369298 -0.08626592 -0.85699686 0.05303813 0.25915532 15
15
Lattice="7.6325442400935755 -0.16617091217165858 -0.19054206616674088 3.779568473249993 6.555902780359075 -0.11922985972258526 3.727168630249428 2.0671591169950854 6.152428843472094" Properties=species:S:1:pos:R:3:force:R:3:Z:I:1 pbc="T T T" config_type=P_vac energy=-76.50004978 virial="3.9546537745243016 8.98376845711653 6.811878595490838 8.98376845711653 4.014777395842754 0.2761361602905436 6.811878595490838 0.2761361602905436 2.619096176877853"
Si 1.85282306 0.82466835 0.74546339 -0.66060665 1.58178447 -1.1953225 14
Si 1.75454456 0.87572693 3.05371411 -0.51503526 0.16950874 0.10799923 14
Si 3.60133733 2.04942521 3.68264886 1.30205901 0.72058689 0.31635032 14
Si 1.91900412 3.27500251 -0.20578734 -2.64238644 -1.72812873 0.16765413 14
Si 3.69537372 4.31311627 0.51428298 1.77056546 -0.46278927 1.56081134 14
Si 5.47165496 5.24578256 3.5786886 0.0684592 -1.24357929 0.03468015 14
Si 3.69110949 -0.15126998 -0.32331941 -0.22244504 -0.54478399 2.23441066 14
Si 5.56159386 0.95371929 0.49999882 0.28804317 -2.11195739 1.08410834 14
Si 5.65577068 0.78488684 2.86888465 -1.75965456 -0.26102515 0.0347403 14
Si 7.45464398 1.87491799 3.64832475 0.94508148 0.73022854 -2.02574381 14
Si 5.67321369 3.03890598 -0.11007607 -1.03219965 2.01663169 -1.65211018 14
Si 7.47749694 4.2270519 0.50485654 1.95032139 -0.07906217 -0.13963776 14
Si 7.56203843 4.15079047 2.85544749 -2.76005248 -1.23398668 -0.80739388 14
Si 9.26166158 5.14860314 3.63233127 2.61186511 1.22673722 1.25061762 14
P -0.18842376 -0.16539654 -0.04241501 0.65598525 1.21983513 -0.97116397 15
15
Lattice="7.618395188933079 -0.14403450172221155 -0.18290662628123394 3.742330830190494 6.518857186351212 -0.142294082964206 3.70998833207705 2.086521972448423 6.2342085327937315" Properties=species:S:1:pos:R:3:force:R:3:Z:I:1 pbc="T T T" config_type=P_vac energy=-76.95052364 virial="14.450763643306221 10.807815613042665 7.263963592586817 10.807815613042665 4.5844626461584275 4.202030317374225 7.263963592586817 4.202030317374225 -6.737936763077425"
Si 1.67261887 0.9833655 3.01520463 1.85261502 -1.20517451 -0.89474635 14
Si 3.60195439 2.0617684 3.83459625 0.30464745 -0.42229806 -0.58722577 14
Si 1.88229702 3.25585408 -0.17149293 -2.36053129 -1.2777916 -0.95078889 14
Si 3.65624132 4.26694789 0.5367997 1.79873666 0.83086923 0.96352787 14
Si 3.67461028 4.30388561 3.0184353 -3.31446009 -1.82563157 -1.50923153 14
Si 5.46618175 5.20916849 3.61421435 2.78215744 2.24752166 1.84094275 14
Si 3.76326311 -0.12650151 -0.33691163 -0.66463029 -0.10593432 0.03297878 14
Si 5.63928893 0.89132742 0.52692524 -0.16813776 -1.61217775 1.1667541 14
Si 5.5929665 0.80220986 3.02196926 -1.70712915 -0.13699331 -0.81671779 14
Si 7.49478989 1.83736279 3.52468867 -0.66820108 1.26940532 1.38311796 14
Si 5.65087016 2.99152394 -0.18687097 -1.20358677 1.52952761 -1.06966015 14
Si 7.43644622 4.20212151 0.41289637 1.45491979 0.30523139 0.98918127 14
Si 7.36197611 4.06733706 2.90527736 0.08333214 0.11033028 -1.50177311 14
Si 9.26070115 5.11082052 3.66288094 0.67385813 0.25072573 0.25102109 14
P -0.15989537 -0.04833732 -0.1316386 1.1364098 0.0423899 0.70261977 15
15
Lattice="7.59458825507429 -0.14557626072576196 -0.18350204683607793 3.705115080295613 6.507015185372787 -0.10154732327953675 3.7491210314501497 2.0894183945483977 6.174220697158644" Properties=species:S:1:pos:R:3:force:R:3:Z:I:1 pbc="T T T" config_type=P_vac energy=-76.96183428 virial="10.360859184423468 3.962043242109432 4.70507941786325 3.962043242109432 3.5497563031330754 3.562013152886217 4.70507941786325 3.562013152886217 -0.7846899061772042"
Si 1.75386364 0.94750877 0.58954225 0.23903676 0.31468388 0.95467897 14
Si 3.6812151 2.00896592 3.72317764 -0.92291674 -0.8483311 0.00566872 14
Si 1.71859803 3.14665952 -0.25087317 0.63190189 0.10277561 -0.03473923 14
Si 3.73951154 4.16603074 0.54959915 -2.34679655 1.13221875 0.63118919 14
Si 3.50412442 4.14312611 2.9545509 0.6609199 0.34937566 -0.88365433 14
Si 5.48585663 5.15670666 3.58868683 0.38682085 0.60992902 0.06515687 14
Si 3.69943732 -0.14651172 -0.23220248 -2.01599645 -0.17324367 -1.65008848 14
Si 5.47465826 0.7872832 0.58235253 1.64780734 1.95679072 0.72137863 14
Si 5.59958795 0.94338477 2.92244802 -0.62127634 -1.42855922 0.05643388 14
Si 7.44559304 2.02321783 3.54340867 1.38950716 -0.04883911 0.65288464 14
Si 5.52819642 3.10310936 -0.14832175 1.54562063 -1.22615547 -0.51641566 14
Si 7.50771985 4.22607388 0.37774628 -0.13167601 -0.94945269 1.4526687 14
Si 7.52519359 4.21540103 2.86913679 -1.72258404 -0.49560212 -1.69133223 14
Si 9.33092646 5.13918351 3.68658112 0.78609158 1.85401705 0.34838225 14
P -0.18458926 0.00468805 -0.12625212 0.47354002 -1.14960732 -0.1122119 15
15
Lattice="7.600789684956921 -0.17377837029452894 -0.13835791937428532 3.765083534199243 6.551297185866661 -0.16178002563217103 3.7013478812997387 2.066089436966618 6.154989543073889" Properties=species:S:1:pos:R:3:force:R:3:Z:I:1 pbc="T T T" config_type=P_vac energy=-77.34438703 virial="-3.5784715053682388 6.751461056999496 5.370996365549093 6.751461056999496 9.460243042732111 -4.91496279945221 5.370996365549093 -4.91496279945221 4.714380054538272"
Si 1.90003093 1.00706859 0.68356353 -1.09053593 -1.07191965 -1.44873415 14
Si 1.8391269 0.85428334 2.9421018 -1.94734709 0.06069349 0.50880738 14
Si 3.53152686 1.9664844 3.79084964 2.34865368 0.71572464 0.09839895 14
Si 1.87467328 3.11000163 -0.18182046 -0.041216 1.61503131 1.1225038 14
Si 3.54676509 4.12461829 2.94031325 -0.4180132 0.57908897 -0.49374654 14
Si 5.41892061 5.31408873 3.70904258 0.65134653 -1.35371706 -1.03550801 14
Si 3.70803095 -0.24735312 -0.15768583 -0.38983492 1.49092284 -1.48801843 14
Si 5.47623985 0.90618669 0.65389236 1.75127264 -0.17854885 -0.38275959 14
Si 5.59423831 0.74650099 2.99645357 -0.90313602 1.62456431 -0.38506202 14
Si 7.49222449 1.9286243 3.5610759 0.42282134 -1.03242954 0.80918454 14
Si 5.63744951 3.05065737 -0.23633709 0.01516282 0.61542148 0.17990561 14
Si 7.56615026 4.28386723 0.53047749 -0.02865717 -2.72208453 -0.37052454 14
Si 7.37299744 4.06838151 2.79558589 -0.74543444 1.28799437 0.67196028 14
Si 9.22472652 5.20365812 3.58580321 0.62645363 -1.5598481 0.44717475 14
P -0.09892535 -0.12810762 -0.16131169 -0.25153587 -0.07089368 1.76641797 15
16
Lattice="7.5770067193151815 -0.1531704550060778 -0.12990916231039784 3.7285361558812005 6.515448299499117 -0.19143797741434565 3.785774240486396 2.0793459555354996 6.174935578481938" Properties=species:S:1:pos:R:3:force:R:3:Z:I:1 pbc="T T T" config_type=P_vac energy=-85.04526548 virial="11.090201339540814 11.747388758811251 7.647943929584421 11.747388758811251 6.455923452542404 2.735139597310065 7.647943929584421 2.735139597310065 4.766628645775957"
Si 1.77874185 0.95333101 0.69190999 2.02164545 0.63167902 -0.26191867 14
Si 1.83741987 0.95370949 3.03141992 -1.12153696 -0.37896709 -0.61263506 14
Si 3.57850381 2.08419416 3.79099274 1.85712026 0.75776573 -0.46257042 14
Si 1.84138515 3.17951181 -0.21694688 -2.20424988 -0.89057852 -0.41748808 14
Si 3.58749677 4.24516023 0.54447751 2.20416398 0.27874917 -0.04056781 14
Si 3.54121026 4.27910652 2.81147667 0.03760784 0.21185097 1.49330608 14
Si 5.51746598 5.33368088 3.62174453 0.31122912 -1.32941605 -0.21556832 14
Si 3.73054417 -0.24176329 -0.25746672 -1.56472337 -0.21054548 -0.41210402 14
Si 5.50617356 0.78448883 0.64373294 1.03949594 0.42688681 -0.63445969 14
Si 5.50758307 0.81358168 2.90956203 -0.91837575 1.03046003 0.64877534 14
Si 7.44313979 1.82827651 3.52673803 0.40646502 1.34923063 0.74632405 14
Si 5.58902435 2.98431792 -0.1515937 -1.50358473 0.2572193 -0.75095814 14
Si 7.41895836 4.11362985 0.42771546 1.44916781 0.363555 0.89877028 14
Si 7.51163907 4.1668405 2.8411835 -2.30620597 -1.26826543 -0.92806016 14
Si 9.20948237 5.27292829 3.6257698 2.0384669 -0.60960877 1.06324196 14
P -0.00745248 -0.05797997 -0.06560089 -1.74668567 -0.62001533 -0.11408733 15
15
Lattice="7.613231729984494 -0.10167473534696699 -0.11126188011105251 3.75701958468441 6.514797348653385 -0.13373484623663742 3.7187838543317433 2.112516698215225 6.228977208347524" Properties=species:S:1:pos:R:3:force:R:3:Z:I:1 pbc="T T T" config_type=P_vac energy=-77.47005238 virial="4.736638588946182 4.988835900390503 4.900454421357575 4.988835900390503 6.97820303178147 0.9627555996636704 4.900454421357575 0.9627555996636704 -4.798604964840239"
Si 1.79786284 0.85879098 0.74163396 -0.39759032 1.04391803 -2.48702711 14
Si 1.71996957 1.06498443 2.92964902 -0.38817797 -0.37525863 2.14934452 14
Si 3.66669141 1.9550214 3.80555947 0.34087893 1.03008867 0.70882332 14
Si 1.86434183 3.15641957 -0.25918584 0.05064589 -0.29608175 0.74596306 14
Si 3.60499837 4.21901577 2.96332663 1.09762959 -1.07114051 -0.35729 14
Si 5.5424767 5.35667 3.63182386 0.20822594 -0.12372436 -0.21565722 14
Si 3.70204411 -0.18977762 -0.18956391 -0.63740496 0.42071947 -0.38009021 14
Si 5.55007668 0.88100954 0.54472896 1.32435995 1.07995516 1.08519051 14
Si 5.64278243 0.86894721 3.03289888 -1.86671671 -0.96069623 -1.36993762 14
Si 7.36301331 2.05525048 3.69239547 1.71573137 -0.13673711 0.4618257 14
Si 5.56950564 3.17185297 -0.05954565 -0.93481131 -0.48727191 -1.19501793 14
Si 7.54901426 4.20912169 0.42442914 0.59473311 -1.13659915 1.36453711 14
Si 7.52026828 4.18582457 2.93489676 -1.99628885 0.34653956 -1.83921496 14
Si 9.36380588 5.13686741 3.59446159 0.91042452 1.51024948 2.08941467 14
P -0.15663559 -0.14830069 0.02493206 -0.02163916 -0.84396072 -0.76086384 15
15
Lattice="7.566539660859691 -0.1327228800114133 -0.1974243340468277 3.7759231559047084 6.603016480174795 -0.1861461419380934 3.7820646448067823 2.1114109877769596 6.224230479055265" Properties=species:S:1:pos:R:3:force:R:3:Z:I:1 pbc="T T T" config_type=P_vac energy=-77.5976368 virial="6.43931848779105 5.055515755429454 4.788920408628738 5.055515755429454 3.6280036967857074 0.801950771678342 4.788920408628738 0.801950771678342 -4.9527107298841795"
Si 1.7590967 0.88577246 3.0961993 0.29865229 1.32348203 -0.86315652 14
Si 3.66908306 2.08994914 3.78188557 -0.40632281 -1.08794144 0.74161861 14
Si 1.74914562 3.25912796 -0.24999229 -0.47746328 -1.12241242 -0.37535911 14
Si 3.61941464 4.20483022 0.4987832 0.48085067 1.10151322 0.45098019 14
Si 3.64983148 4.18236722 2.89482973 -0.53736299 1.57078894 -0.06870374 14
Si 5.54833046 5.40096033 3.62835297 0.11266122 -1.85338502 0.02173069 14
Si 3.6340183 -0.24622007 -0.25990766 -0.22041059 1.3457898 -0.47799267 14
Si 5.51176488 0.95930507 0.46427568 0.02181236 -1.5941841 0.75447216 14
Si 5.51186845 0.92733018 2.91000362 -0.21663091 -0.87434198 -0.47318777 14
Si 7.45904716 1.92402414 3.56734613 0.02631121 0.69417764 0.38285219 14
Si 5.53232226 3.09474278 -0.25176527 0.53214357 1.22390579 -1.18606751 14
Si 7.52272786 4.27854996 0.42491857 -0.86943657 -0.98292304 -0.31619184 14
Si 7.46302535 4.20246566 2.71747047 -1.59735047 -0.8366282 0.61850966 14
Si 9.22139812 5.23620474 3.52589973 2.12052151 0.87237316 0.72601797 14
P -0.16292347 -0.09626097 -0.06132908 0.73202479 0.21978561 0.06447771 15
15
Lattice="7.6368405434500595 -0.12745517979359566 -0.16137980621604917 3.764598361430999 6.582925124692299 -0.1717716124839284 3.7720090139597375 2.054453013452087 6.194317286681156" Properties=species:S:1:pos:R:3:force:R:3:Z:I:1 pbc="T T T" config_type=P_vac energy=-77.31833355 virial="4.213869184729911 2.973223294983776 2.734680701268991 2.973223294983776 2.3362310797776296 1.2572419154010583 2.734680701268991 1.2572419154010583 -2.8032345471912903"
Si 1.92087234 0.94787704 0.59184966 -0.93223466 1.23619949 0.64286627 14
Si 1.81975868 0.87926565 3.0356771 -0.01767465 0.6295491 -0.91218598 14
Si 3.70836856 1.99464438 3.78424756 0.23861318 1.00459043 -0.11936721 14
Si 1.88224336 3.27290084 -0.29440812 -1.10682632 -0.81989053 0.78549119 14
Si 3.78166748 4.24956883 0.46910147 0.58224316 0.61518483 1.06285964 14
Si 5.59905924 5.32638595 3.6095411 -1.0430735 -0.86857914 -0.33318914 14
Si 3.65012994 -0.18699386 -0.29358361 1.17373728 -0.06212116 -0.73924023 14
Si 5.58679676 0.89071591 0.57795463 0.02140978 -0.61016966 0.06536461 14
Si 5.55376868 0.81195582 2.94281105 0.61393701 0.89905437 -0.23523339 14
Si 7.57084925 1.96701784 3.5139189 -0.80690152 0.11190641 0.3311162 14
Si 5.71966499 3.08014583 -0.16529444 -1.69404066 -0.35595284 -1.71133058 14
Si 7.49521212 4.23532044 0.37633198 1.96295999 0.34486037 0.70654769 14
Si 7.42887001 4.25926989 2.76699304 0.18374211 -1.08702842 -0.551835 14
Si 9.27197219 5.28381714 3.56788337 1.06834722 -0.70283766 1.12894143 14
P -0.04500215 -0.10128389 -0.08878909 -0.24423843 -0.3347656 -0.12080549 15
15
Lattice="7.651733100807603 -0.11437308918229598 -0.1673485834477196 3.7899958340064583 6.510233250512743 -0.11833634737450668 3.7130151461588605 2.085331576960859 6.194304511465232" Properties=species:S:1:pos:R:3:force:R:3:Z:I:1 pbc="T T T" config_type=P_vac energy=-76.71945423 virial="6.036349830699459 10.158735473171674 7.311097939601843 10.158735473171674 2.272196004234871 4.32158020968015 7.311097939601843 4.32158020968015 0.10564558313866251"
Si 1.92608495 0.93400163 0.71944338 -0.45905965 0.12690748 -1.97177133 14
Si 1.7799539 0.89012544 2.91235522 -0.66601989 0.19589006 2.37989171 14
Si 3.60485685 2.08452975 3.76494165 0.57248413 -0.51281609 -0.04451185 14
Si 1.88234162 3.14198233 -0.19222123 -2.45548927 -0.94955851 -0.79689294 14
Si 3.63419248 4.19717411 0.51705919 2.35688764 0.72364022 0.80782884 14
Si 3.52785563 4.27276301 2.87241291 -1.12683523 -0.38305097 0.06786698 14
Si 5.41461081 5.1988428 3.63098391 1.92675717 0.37349647 0.15186857 14
Si 3.77163624 -0.21117305 -0.207216 -1.98567214 -0.40787075 -1.3091003 14
Si 5.48406814 0.81651762 0.54763287 2.79307719 1.41395401 1.52415516 14
Si 7.40249883 1.86003487 3.63051059 -0.02172734 0.07211316 -0.80507218 14
Si 5.72632941 3.09913079 -0.10143264 -2.27195334 -0.93642525 -1.68037724 14
Si 7.5429715 4.18150759 0.44936431 1.87243318 -0.419283 1.39220068 14
Si 7.53367102 4.17393775 2.86965534 -2.45539343 -1.30737229 -0.75210819 14
Si 9.25181302 5.29020919 3.55500211 2.1359245 1.41040048 1.33502503 14
P -0.1361725 -0.1080289 -0.06767115 -0.21541353 0.59997498 -0.29900294 15
16
Lattice="7.633822826506678 -0.12769175100493085 -0.10899656400210411 3.774640208304485 6.561259700711994 -0.19072215799884143 3.7645037678467688 2.1316899468213055 6.153980909263106" Properties=species:S:1:pos:R:3:force:R:3:Z:I:1 pbc="T T T" config_type=P_vac energy=-85.12932399 virial="2.8511999881505683 0.05048122650674284 -0.06959106488280747 0.05048122650674284 3.6931368435896754 1.6260277262204552 -0.06959106488280747 1.6260277262204552 9.242218929640316"
Si 1.9037993 1.02125034 0.71006119 -0.40049397 -0.31091912 -2.07030366 14
Si 1.70614683 1.05273025 2.89899047 1.70979907 -1.4843181 2.12772899 14
Si 3.74830373 2.02924451 3.79302072 -0.56242059 -0.03222914 -1.77120957 14
Si 1.74696005 3.18390167 -0.20114338 1.38854573 0.01540526 0.09282365 14
Si 3.79469529 4.26522105 0.45488769 -0.66761647 -0.79604898 1.23819299 14
Si 3.55092771 4.24096314 2.9568634 1.77383151 0.09931251 -0.91266458 14
Si 5.61081263 5.33410542 3.66527996 -0.75315851 0.11948547 -1.40472551 14
Si 3.68645442 -0.22926682 -0.25411968 -0.5419824 0.40337337 0.60219197 14
Si 5.53310798 0.85208409 0.50967406 0.89691632 -0.2386704 0.81275004 14
Si 5.61928686 0.82847616 2.90701482 -0.31214098 0.84673305 -0.43501225 14
Si 7.53750271 1.90385436 3.64241441 -0.98867295 1.55218173 -0.96797151 14
Si 5.71040978 3.02381461 -0.16432102 -0.07416175 1.17761909 -0.89304766 14
Si 7.63297473 4.25934738 0.50399338 -0.93676266 -0.70187722 -0.61493839 14
Si 7.53024913 4.22306373 2.73943296 -0.62800006 -0.59089792 1.81533831 14
Si 9.38668053 5.30198802 3.58188282 -0.17365127 -0.67126329 1.01382926 14
P -0.09970761 -0.14856067 -0.15909811 0.26996898 0.61211369 1.3670179 15
15
Lattice="7.595842339071511 -0.1378804220322892 -0.1916278868061955 3.7219563274092553 6.53838707053299 -0.13759818200946589 3.761749534039643 2.1394743919031014 6.220040839043135" Properties=species:S:1:pos:R:3:force:R:3:Z:I:1 pbc="T T T" config_type=P_vac energy=-77.66054907 virial="5.1878332725940846 8.782650729315177 6.376234693444318 8.782650729315177 -0.9602348659411034 2.198989023746502 6.376234693444318 2.198989023746502 4.4173892804487815"
Si 1.82147963 0.98227654 0.63397696 -0.66536744 -0.6854929 -0.05900542 14
Si 1.7607854 1.01760638 2.94825989 0.41532672 0.07129524 0.61716471 14
Si 1.73433161 3.1686534 -0.12593326 -0.98027387 -0.11750271 -1.42743148 14
Si 3.58329765 4.17811981 0.64702579 1.07124128 1.28453124 -0.41464345 14
Si 3.6896277 4.23331424 2.9007666 -1.65689118 -0.57479295 0.92331593 14
Si 5.48128246 5.33354995 3.61762777 1.74335424 0.23093482 0.74650726 14
Si 3.73377341 -0.14492215 -0.24893892 -2.19950337 -1.38858337 -1.27888137 14
Si 5.47149052 0.81146953 0.59000332 2.82247034 1.31409082 0.4843993 14
Si 5.55641809 0.94523725 2.88439364 -1.30820314 -0.0331229 0.15092704 14
Si 7.41932228 1.98185952 3.54164562 1.06130936 0.87450835 0.63816857 14
Si 5.54121445 3.09995891 -0.16501046 -0.94664721 -0.69316385 -1.23727625 14
Si 7.41103772 4.16634858 0.47440784 0.8496813 0.59746175 -0.62898177 14
Si 7.51511019 4.22082317 2.72983639 -1.32306991 -0.17211736 1.32418735 14
Si 9.29540929 5.33617774 3.57644693 1.15244803 -0.53203671 0.8259204 14
P -0.16872846 -0.12478673 0.01237099 -0.03587517 -0.17600947 -0.66437083 15
15
Lattice="7.582181734393132 -0.1699959735344779 -0.17242213579046323 3.754156836570037 6.533703884652843 -0.19546350342177932 3.6943962830706774 2.1065591848118776 6.205883903507713" Properties=species:S:1:pos:R:3:force:R:3:Z:I:1 pbc="T T T" config_type=P_vac energy=-77.38138236 virial="6.207746502872356 0.3537157034202124 0.7256992876786925 0.3537157034202124 -0.8114467542836368 1.810767456796165 0.7256992876786925 1.810767456796165 -4.103927000475456"
Si 1.90711248 1.01165067 0.61314442 0.18504294 -0.36518329 0.35432138 14
Si 1.68761482 1.03135449 3.06940648 2.04158496 -1.85072625 -1.26080436 14
Si 3.67198849 2.08916138 3.73166269 -0.94433352 -0.99353844 1.48475597 14
Si 1.75301655 3.25425586 -0.28308572 -0.2501952 -0.40434667 1.33643649 14
Si 3.73462552 4.14777207 0.53987586 -0.042711 0.18417024 0.28477782 14
Si 3.57806851 4.18172542 2.96427711 0.71468833 1.11869253 -1.0554285 14
Si 5.50469098 5.27116047 3.6843315 0.60134288 0.29001378 -1.55927112 14
Si 5.52594875 0.80822622 0.48288791 -0.67711259 -0.93466979 0.67415468 14
Si 5.45417183 0.89388337 3.02424377 1.16750846 -1.00121253 -1.17769991 14
Si 7.49832892 1.84066512 3.57093676 -1.98968457 1.81637346 1.09309097 14
Si 5.62074503 2.98453724 -0.31598463 0.18211748 0.64833252 -0.06449738 14
Si 7.47354969 4.23850238 0.43072962 -0.05578504 0.37881135 -0.60343103 14
Si 7.43237118 4.07898946 2.73611941 -0.65398169 -0.11984665 0.72507425 14
Si 9.31055115 5.13977002 3.5303818 -0.57518581 0.73731303 0.37679613 14
P -0.06571334 -0.13275883 0.01689276 0.29670436 0.49581671 -0.60827537 15
15
Lattice="7.6186640691162495 -0.17792272084888802 -0.141893886572366 3.740541567751208 6.597538703597225 -0.15906000728619293 3.7607898451446515 2.0517027707031565 6.224485562729485" Properties=species:S:1:pos:R:3:force:R:3:Z:I:1 pbc="T T T" config_type=P_vac energy=-77.42232269 virial="1.7891926713050936 6.886898143524382 4.633892549247713 6.886898143524382 -0.7860455849760546 2.3166411920553536 4.633892549247713 2.3166411920553536 -4.795956610533154"
Si 1.8021697 0.90856698 2.93677364 -0.04573753 -0.09724877 -0.10045446 14
Si 3.6815293 2.05722681 3.71353287 0.08346163 -0.77952405 0.18961606 14
Si 1.9062669 3.31418371 -0.14006568 -1.44911117 -1.42978615 -0.68954786 14
Si 3.67049354 4.30253182 0.64075008 1.84142929 1.06738586 -0.89472887 14
Si 3.53092773 4.26611758 2.89923987 1.29140067 0.43108853 1.39799729 14
Si 5.58586962 5.33909203 3.76692515 -0.57274161 -0.26451328 -0.88199018 14
Si 3.61301802 -0.11782893 -0.24056497 0.2988308 -0.09419439 -0.20417218 14
Si 5.62515506 0.93829277 0.55369481 -0.00966126 -2.25544726 -0.37013989 14
Si 5.56816461 0.72903415 2.88710563 0.19258404 1.93973461 0.09772331 14
Si 7.53743948 1.88655673 3.550713 -0.43973507 0.66151636 0.41249317 14
Si 5.65724971 3.0742874 -0.10684693 -0.37382573 1.59067046 -1.10534867 14
Si 7.60721408 4.20200779 0.39219998 -0.39645497 0.88539937 1.30359214 14
Si 7.482176 4.2545049 2.87966706 -0.26233829 -1.08187843 -0.82954404 14
Si 9.37963571 5.28469004 3.66281987 -0.21849758 -1.05207374 1.05943574 14