1
Lattice="20.0 0.0 0.0 0.0 20.0 0.0 0.0 0.0 20.0" Properties=species:S:1:pos:R:3:force:R:3 config_type=isolated_atom virial="-0.0 -0.0 -0.0 -0.0 -0.0 -0.0 -0.0 -0.0 -0.0" energy=-0.0 pbc="T T T"
Si      10.00000000      10.00000000      10.00000000       0.00000000       0.00000000       0.00000000
1
Lattice="10.0 0.0 0.0 0.0 10.0 0.0 0.0 0.0 10.0" Properties=species:S:1:pos:R:3:force:R:3 config_type=isolated_atom virial="0.002946154586654173 -0.0 -0.0 -0.0 0.002946154586654173 -0.0 -0.0 -0.0 0.002946154586654173" energy=-0.05859601 pbc="T T T"
Sb       1.98275554       1.11276674       0.78597677      -0.00000000       0.00000000       0.00000000
