17
Lattice="7.8174270632 0.0 0.0 3.8553592425 6.6663899445 0.0 3.8859957015 2.2423426806 6.2843497413" Properties=species:S:1:pos:R:3:force:R:3 config_type=Sb_double virial="36.00967807383372 -16.570530626263984 -15.356259797421865 -16.570530626263984 45.932378939452285 -5.586554613455085 -15.356259797421865 -5.586554613455085 51.839634908345616" energy=3.4860817099999934 pbc="T T T"
Si      -0.08659670       0.10526624       0.03754270      -2.21499501      -1.23418959      -0.64439300
Si       1.90283385       1.09246415       3.12824290      -0.03631685       0.24049170       3.55346984
Si       3.81536497       2.22397065       3.97257490      -0.10987366      -0.00839839      -0.07154134
Si       1.96098112       3.38435299      -0.00374663      -0.28601255       3.65059489       0.11918449
Si       3.93097658       4.40751133       0.84107093       0.08718869       0.03444929       0.04324406
Si       3.83118647       4.46264675       3.11230968      -0.29517575       0.20235704      -0.27258585
Si       5.73650637       5.51079747       3.93966440      -3.17272905       5.04990068      -1.93380056
Si       3.89667744      -0.02625147      -0.11072413       4.39873713      -3.78099411       1.48509504
Si       5.76575760       1.08619393       0.82454338       0.10333916       0.08249111       0.02346317
Si       5.84820081       1.17848898       3.18972714      -0.10107187      -0.66705668      -0.54316850
Si       7.91291720       2.24229964       3.89125432       7.58651462      -8.75741396      -4.82055627
Si       5.86891690       3.32448149       0.12984303      -0.00431470       0.03126467       0.01462571
Si       7.81675908       4.50938732       0.75768396      -0.19416474      -0.20649965       0.11738850
Si       7.76410780       4.42828817       3.08764059       5.43312085       3.65039204      -7.19741041
Si       9.70998909       5.54181493       4.00202821       0.11814375      -0.16510573       0.03556707
Sb       1.99370068       1.11013337       0.77667803      -2.28033785      -0.66589522       4.69432307
Sb       6.64097687       3.62411453       4.69516133      -9.03205219       2.54361189       5.39709498
17
Lattice="7.7924619578 0.0 0.0 3.8962883532 6.6949056059 0.0 3.860200594 2.2322655307 6.288132145" Properties=species:S:1:pos:R:3:force:R:3 config_type=Sb_double virial="39.04710189792321 -10.670241100445843 -8.781758514102984 -10.670241100445843 41.14473951625054 -2.1844160719209986 -8.781758514102984 -2.1844160719209986 35.96930502914457" energy=0.7277705700000041 pbc="T T T"
Si      -0.12114329       0.00731941       0.04598219      -0.60540100      -1.18006371       0.61968909
Si       1.99601849       1.05870873       3.04595965       0.12986475      -1.09899193       4.68799924
Si       3.89035702       2.26214631       3.89473372       6.10352892      -4.46407513      -2.12148845
Si       2.03384192       3.35144613      -0.05546170      -0.00302769       2.34814042      -0.78476827
Si       3.90322212       4.47235116       0.75980215       0.00531049      -0.13352870       0.03727042
Si       3.73596756       4.41467589       3.10617883       4.64326053       2.32126374      -4.06983413
Si       5.75310678       5.57678397       3.82005907      -0.04918671      -0.13381829      -0.00933756
Si       3.78612092       0.01176542      -0.18564810       3.04248619      -2.25789261      -1.53785292
Si       5.86320309       1.15500015       0.74645026      -0.10256299       0.11428434       1.35241826
Si       5.80036911       1.02256444       3.07037118       0.14499232      -0.73295449       0.06943401
Si       7.80638264       2.25602687       3.91132834      -1.17336307      -0.33707169      -0.43740108
Si       5.80211697       3.30623398       0.01700268      -0.31618933       0.74106118       0.84417973
Si       7.80129811       4.56283592       0.71302082       0.07779634      -0.16119428       0.00571747
Si       7.83552386       4.47566905       3.13295101      -0.80494902       0.53972950      -0.39377799
Si       9.57924196       5.63050835       3.89424647      -1.97936983       6.39561762      -1.52471125
Sb       2.00520594       1.07724654       0.79646209      -2.12946064       0.65811597      -2.19438361
Sb      -1.66408636      -3.17305199       4.45188318      -6.98372925      -2.61862194       5.45684705
17
Lattice="7.7777814228 0.0 0.0 3.8793113141 6.7452054717 0.0 3.8589048693 2.2261294592 6.3921216" Properties=species:S:1:pos:R:3:force:R:3 config_type=Sb_double virial="33.491826663381126 -5.984016636357076 -3.0434633119437864 -5.984016636357076 46.30265103864952 -1.4580955355355447 -3.0434633119437864 -1.4580955355355447 28.679849818837454" energy=-0.5324219499999998 pbc="T T T"
Si       0.02104224       0.00592384       0.01896136      -2.36666261      -0.40150369      -0.29713648
Si       1.90954363       1.12743608       3.17701201      -1.17286761       0.45490214       2.28337240
Si       3.84829648       2.20455511       4.14001901      -0.81415171       9.16031016      -1.02153024
Si       1.97765425       3.38793111       0.02681196      -0.26479753       2.09613034      -0.49530007
Si       3.91521942       4.48490687       0.79513608       0.01192972      -0.04594949       1.03684111
Si       3.84349169       4.52389491       3.15571980       0.29672010       0.32464972      -0.33165150
Si       5.70637371       5.54712453       3.98066788      -1.36789239      -1.03760468      -0.37092996
Si       3.82647333       0.07311004      -0.09605493       3.58652500      -2.01948430      -1.63311764
Si       5.80901875       1.09522063       0.77608129      -0.01001986       0.17122606       0.09356783
Si       5.80347982       1.11528482       3.12649809       1.89553824       0.97521064      -2.00021070
Si       7.74924374       2.32217153       4.05165651      -0.06433181       0.08263997       0.12826661
Si       5.84104005       3.24237792       0.12003405       0.33569565      -0.65129789       0.57547370
Si       7.81725762       4.61992421       0.84032664       0.01416263       0.06306866       0.07296009
Si       7.71556965       4.57617832       3.21862538      -0.10851789      -1.16207586      -0.76050656
Si       9.62590134       5.60142670       4.09324675       4.07643224      -3.52378076      -0.67609486
Sb       1.99047636       1.10267939       0.81873469      -1.24405857       1.04558249       0.30601640
Sb      -7.67318817      -2.08256329      -1.85469730      -2.80370361      -5.53202348       3.08997988
17
Lattice="7.8079001471 0.0 0.0 3.9081853795 6.7344079966 0.0 3.8675429152 2.250891384 6.2893489089" Properties=species:S:1:pos:R:3:force:R:3 config_type=Sb_double virial="42.71360999609227 2.270759430892386 -2.105937024546748 2.270759430892386 40.5661752886088 -1.286590319885045 -2.105937024546748 -1.286590319885045 19.984385214369915" energy=-0.9931194600000026 pbc="T T T"
Si      -0.02253804      -0.00113706      -0.05723384      -2.01795053      -1.22441691      -0.26386459
Si       1.93709754       1.14449700       3.23132205       0.31657786       0.13145929       2.32920245
Si       3.80605993       2.20631256       4.06527372      -7.03196074      -4.18729760       1.16681950
Si       1.99846791       3.39515631      -0.04137827       0.09445036       2.48141587      -0.39538414
Si       3.97261557       4.46025058       0.79053428       0.16319735      -0.05657953       0.17771022
Si       3.88452563       4.44371482       3.01504376      -2.83222244       2.01981370      -2.56787143
Si       5.85772518       5.64312267       3.88330178       0.83613354       4.35017532      -0.12217159
Si       3.90316407       0.02633124      -0.13070208       2.59366471      -1.52594111      -0.78550402
Si       5.82930317       1.10779325       0.80125804       0.11926831       0.14988808       0.12727304
Si       5.90809067       1.11986216       3.17465110       1.08380496      -3.09042237      -1.50041352
Si       7.80132711       2.30855075       3.78608798       2.97815195      -1.33437364      -0.50070246
Si       5.83338971       3.40991695       0.04207738      -0.09850543       0.04640514      -0.00831958
Si       7.87053640       4.63504070       0.76497159      -0.01673503      -0.15339200       0.18512943
Si       7.75176461       4.60137809       3.13316556       1.44142688       0.97264969      -0.65119337
Si       9.63642659       5.62867676       3.96526640      -0.41278776       0.03804352       0.31707522
Sb       2.00557589       1.10808043       0.82478292      -0.82204147       0.24826331       0.71664795
Sb       5.69898311      -5.64890012      -2.23691011       3.60552746       1.13430925       1.77556688
17
Lattice="7.7578319855 0.0 0.0 3.8831629059 6.6670525978 0.0 3.8753118077 2.2227616701 6.3265604503" Properties=species:S:1:pos:R:3:force:R:3 config_type=Sb_double virial="62.47543918762818 -6.7484220821539305 -6.147310583798715 -6.7484220821539305 16.02771236794858 11.966072231603682 -6.147310583798715 11.966072231603682 58.31209809435365" energy=3.989459860000011 pbc="T T T"
Si       0.00598606       0.03153929       0.00902982       8.66153008      -3.25141088       7.73054986
Si       2.01580929       1.06117573       3.18231251      -0.15439163      -2.11280386       1.79584222
Si       3.86719115       2.18561025       3.96257661      12.85216561      -2.07567496     -10.05295192
Si       1.96647015       3.35460604      -0.00257010       0.08563887       1.40269381      -0.37973189
Si       3.94784407       4.31534107       0.78309470       0.26992057      -0.01337821       0.08070561
Si       3.88500524       4.44790765       3.21219214       0.50656553       0.42733606      -0.38515165
Si       5.73147448       5.45587594       3.95169278      -0.13799567      -0.18009655      -0.11403795
Si       3.80952379       0.03593204      -0.13380834       2.29391528      -2.20418524      -1.44831352
Si       5.74800422       1.11533298       0.87307609      -1.33997216       2.37388943       4.78278660
Si       5.88042572       1.10258713       3.08654712       0.24710984      -0.36647577      -0.31048505
Si       7.72116061       2.13654072       3.95316418      -1.48384001      -0.16723195      -0.62226042
Si       5.84162719       3.27087922       0.12556182      -0.12177684       0.20445925       0.17314619
Si       7.81488625       4.58059407       0.80449615       0.05097380      -0.16372508       0.13789274
Si       7.86152885       4.55883821       3.07182506       0.04873075       0.23482852      -0.07459286
Si       9.68553598       5.53400963       3.97794434       0.02430045       0.06177204      -0.01060311
Sb       2.02916574       1.00917850       0.90067267      -1.97906397       1.86219650      -1.42197324
Sb      -1.57425802      -4.17115982       5.10544925     -19.82381049       3.96780686       0.11917842
17
Lattice="7.7970132102 0.0 0.0 3.856402097 6.7441741243 0.0 3.9093906109 2.2251478379 6.3197990578" Properties=species:S:1:pos:R:3:force:R:3 config_type=Sb_double virial="46.192356541941216 -6.4591056298098835 -6.817886863086143 -6.4591056298098835 58.59558441420181 -2.1399137791391327 -6.817886863086143 -2.1399137791391327 25.719529504660727" energy=3.055873790000007 pbc="T T T"
Si       0.10690050      -0.03850890       0.02170117      -2.97740997      -1.71250726      -1.42288303
Si       1.98953862       1.02224257       3.19849892       3.55078133     -15.62896208       3.94953537
Si       3.89166643       2.21761224       3.98391292       2.15869247      -0.71155444       0.97562141
Si       2.00598003       3.45948753       0.03924195      -0.05885288       2.14834008      -1.03229864
Si       3.81939606       4.50358155       0.80739183       0.26985255       0.10800482      -0.01353054
Si       3.87281815       4.52375705       3.24939354       0.86979941       0.64729258       0.12856614
Si       5.77663034       5.59111462       3.96820631      -0.27175177       0.40114413       0.04611296
Si       3.89146650      -0.00866165      -0.03972469       1.98347958      -1.19988242      -1.09920794
Si       5.83495034       1.08692245       0.83500425       0.01599012       0.03155293       0.03749630
Si       5.72957606       1.12017345       3.24626735      -0.14167406       0.00412531      -0.01800610
Si       7.77237137       2.22933460       3.94280907      -9.68622228      -3.34990359       5.83992105
Si       5.80021149       3.33935958       0.01882488      -0.01319739      -0.08557232      -0.03029354
Si       7.89052899       4.59414160       0.81500829      -0.28980159       0.38795076      -0.12285911
Si       7.75050384       4.40844688       3.07809663      -4.26766817       3.77367700      -0.04039299
Si       9.56028190       5.63111294       3.98227817      -0.14620833       0.94822562       0.24915417
Sb       1.95521907       1.15956052       0.82570827       1.13342830      -1.34986290      -2.04307614
Sb      -2.21078160      -3.79023490       2.97842589       7.87076267      15.58793180      -5.40385939
17
Lattice="7.7009827168 0.0 0.0 3.9249759799 6.6879353147 0.0 3.8614923669 2.2246413696 6.3256579005" Properties=species:S:1:pos:R:3:force:R:3 config_type=Sb_double virial="67.21894431543352 -1.2677330096575559 -0.37875365034702935 -1.2677330096575559 28.182917776208274 12.663318486522478 -0.37875365034702935 12.663318486522478 39.79237128395097" energy=3.457908769999989 pbc="T T T"
Si       0.02426493       0.05516426       0.08428566      -2.73060461      -1.21196911      -1.73370019
Si       1.84639999       1.10249191       3.13925269      -0.00065516      -0.00183161       4.00568163
Si       3.81681250       2.20157624       3.99298612       0.09154649       0.08880773       0.01726873
Si       2.07229575       3.40449705      -0.01566163       1.09241797      -4.73014234      -5.84205377
Si       3.85378577       4.40032546       0.83632698       9.63464522      -2.76159908      -2.82635425
Si       3.88456137       4.38259152       3.11619487       1.61512168      -0.44326473       0.94588789
Si       5.75247896       5.48794796       3.91801263      -0.35462798       0.08766894       0.01163240
Si       3.77626435      -0.04403195      -0.03505036       3.31894850      -2.02921839      -2.19396185
Si       5.61923520       1.05193301       0.90906092       0.13076156       0.57042254       0.07089605
Si       5.78398650       1.13301103       3.19867568       0.04819996       0.22785559       0.06380697
Si       7.71136863       2.25562364       3.90414253      -0.18034898       0.12979060      -0.13804970
Si       5.71086959       3.27277004       0.02577409      -0.42892702      -0.17655999      -0.23213126
Si       7.80386029       4.44051225       0.77442979     -10.53739138      -2.35767237      -3.92383300
Si       7.84530674       4.44576600       3.13075712      -1.61324870      -0.67158864       1.61753320
Si       9.72201364       5.51927644       4.04210232       0.17103901       0.35670668       1.52206830
Sb       1.99414730       1.04701852       0.82831928      -0.93353985       2.56021213      -0.52759998
Sb       5.73710907      -1.72751204       1.46993488       0.67666327      10.36238204       9.16290881
17
Lattice="7.7950155331 0.0 0.0 3.9099181399 6.7419792168 0.0 3.9081070213 2.2341444265 6.3594633101" Properties=species:S:1:pos:R:3:force:R:3 config_type=Sb_double virial="54.91430704160204 -19.452724452941144 -9.883065835558568 -19.452724452941144 26.596705914505243 4.5230200806054 -9.883065835558568 4.5230200806054 72.15136822852897" energy=6.8222788600000115 pbc="T T T"
Si      -0.08553647       0.02111003       0.03919160      -1.38624044      -0.83888224      -0.37409098
Si       1.93796728       1.14879243       3.18015053       4.37377402      -3.30743663     -10.11825331
Si       3.85131835       2.24299256       4.08853658       1.09449364       0.28245854      -0.73731580
Si       1.89922062       3.34535728      -0.09480519       0.01255294       2.15905381      -0.79047087
Si       3.94309776       4.52695883       0.69338203       0.07522816      -0.21947860       0.05186913
Si       3.85139015       4.42029260       3.13665781      -0.05767925       0.03601959       0.05276618
Si       5.86762120       5.54902298       3.85578480       0.35721237      -0.78367723      -0.55839494
Si       3.85593149      -0.03087415      -0.10056533      -8.78192019       3.01949661       8.95691411
Si       5.79669484       1.11472590       0.79286150       0.04648662       0.90655070       1.02330183
Si       5.86154211       1.09038695       3.19765796       0.20566250      -0.06655432       0.06212402
Si       7.82531026       2.32298122       3.92652218     -14.23345715       8.54123866     -11.85102503
Si       5.98061087       3.35426437       0.19625854       0.10046267       0.02325869       0.11560266
Si       7.89339584       4.61599990       0.77167910      -0.71213531      -0.29214652       1.13068217
Si       7.80909528       4.42572279       3.07086426      -0.08996972      -0.37640180      -0.03759300
Si       9.70299988       5.63060083       3.97073469      -0.09077382      -0.01716116      -0.04505902
Sb       1.96652388       1.09931994       0.80063785      -0.61921373       0.30894378      -0.36591923
Sb       1.37997324       6.08462498      -1.31465726      19.70551669      -9.37528190      13.48486211
17
Lattice="7.8277537764 0.0 0.0 3.8674593644 6.6781552659 0.0 3.8827727375 2.2515721258 6.3367746565" Properties=species:S:1:pos:R:3:force:R:3 config_type=Sb_double virial="25.49690322696739 -9.035301498695606 -8.394562112073428 -9.035301498695606 40.837515542026914 -5.121222795297962 -8.394562112073428 -5.121222795297962 51.98925554251535" energy=0.9052386099999978 pbc="T T T"
Si      -0.03979514       0.01234840      -0.03920742      -2.18752653      -1.15814258      -0.76195221
Si       1.95601413       1.14522816       3.19305929       1.01619592       0.64507001       1.06316645
Si       3.89461193       2.31014175       3.95704784       0.05933677       0.03833646      -0.03743804
Si       1.90697100       3.26575511       0.04150877       1.98754366       2.72891958       0.16814817
Si       3.89995826       4.47516048       0.72100367      -0.00450836      -0.17554713      -0.04617010
Si       3.78388619       4.47183973       3.18154810      -0.17414611      -0.34981148      -0.17771266
Si       5.76806245       5.49809573       3.91946092       1.74199566      -2.03185932      -1.65108870
Si       3.81206018      -0.08834364      -0.05899305       1.19290336       2.39441305       1.64304983
Si       5.79970663       1.03509584       0.84327431       0.00431877       0.00870766       0.16477934
Si       5.86134139       1.02964818       3.10591269      -0.36501588       0.03663297      -0.37277753
Si       7.83073343       2.25306785       3.93425515      -0.78994543       3.40560705      -2.07746852
Si       5.99221847       3.37448190       0.10375124      -0.42484998      -0.18885136       0.54968126
Si       7.82803735       4.51009551       0.77435462      -2.77853381      -0.99850465      11.37260395
Si       7.77409283       4.45082774       3.04170351       0.40341686       0.17096636      -0.44642377
Si       9.66427013       5.62747209       4.04978745      -0.32711858      -0.19146613      -0.08741711
Sb       1.93587287       1.11489070       0.77290628      -0.29533857      -1.64070883       0.85083210
Sb      -3.46444701      -6.40244561       5.10575214       0.94127225      -2.69376168     -10.15381249
17
Lattice="7.7391451749 0.0 0.0 3.9003991822 6.6844331265 0.0 3.9095112069 2.2422771988 6.328602358" Properties=species:S:1:pos:R:3:force:R:3 config_type=Sb_double virial="24.068947007263958 -13.301977192511318 -9.360956775105977 -13.301977192511318 55.67588377928543 -13.02726687331997 -9.360956775105977 -13.02726687331997 69.10070680059299" energy=5.863040620000007 pbc="T T T"
Si      -0.03920360      -0.00139420      -0.01909870      -2.00653608      -1.26278477      -0.21918532
Si       1.87987431       1.10195821       3.13229433      -0.16851015       0.32694493       4.47593906
Si       3.81998427       2.14859416       4.02832257       0.06625132       0.02200552      -0.07762781
Si       1.97866558       3.39601452      -0.07172342      -2.04327224      11.66745342       5.24452508
Si       3.90300660       4.48518740       0.85360844      -0.13303022      -0.00030575       0.09147705
Si       3.81953604       4.44646916       3.20858849      -0.57616568       0.31799497      -0.51224039
Si       5.83019022       5.59607649       4.05602344      -3.72559829      11.30760985      -7.28140844
Si       3.91061042       0.08495231      -0.02643451       4.74784429      -3.04436348      -0.48732945
Si       5.76497899       1.13481071       0.73672055       0.04670290       0.12260552       0.07268336
Si       5.75142395       1.13329302       3.09550642      -0.04207264      -0.15385816      -0.17418187
Si       7.78562044       2.27013401       3.77410123       0.74931130      -1.03658338      -0.95769947
Si       5.94868735       3.24217445       0.02695786      -0.02490612       0.01817312       0.00777866
Si       7.80994072       4.51183652       0.77644793       0.00740757      -0.37777166      -0.05195596
Si       7.70611556       4.51226882       3.10622921       1.42018336       0.65328804      -2.02551935
Si       9.75106130       5.53108287       3.93442512       0.07611646      -0.05074606       0.03367919
Sb       2.01484689       1.04605172       0.87122937      -4.19833713      -4.07041660      11.16645358
Sb      -5.33000120      -2.70169700       5.13038389       5.80461134     -14.43924550      -9.30538791
17
Lattice="7.7028943667 0.0 0.0 3.8916359351 6.722109215 0.0 3.8952342059 2.2574141928 6.3544093432" Properties=species:S:1:pos:R:3:force:R:3 config_type=Sb_double virial="30.62919300774003 -13.541393996325148 -8.529629779266477 -13.541393996325148 43.92032837572707 -3.828865081353949 -8.529629779266477 -3.828865081353949 41.4001271127236" energy=0.7235676800000022 pbc="T T T"
Si      -0.08046867      -0.02475799       0.01586181      -1.39246971      -0.49345573      -4.98340420
Si       1.91487764       1.13236158       3.19917089       0.20666993       0.04911642       2.14237562
Si       3.90162268       2.25493736       4.02239493      -0.42771274       0.08648119      -0.04816694
Si       1.99221134       3.43622492      -0.01540461       0.08065902       1.43074581      -0.45235601
Si       3.97240632       4.55369603       0.75136505       1.02077733      -2.96894383      -2.87951219
Si       3.89266802       4.45641369       3.12896954       2.70395475      -7.69170707       3.68856633
Si       5.78208665       5.61738536       3.95287639       0.62009564      -0.35026581       0.49427918
Si       3.80140093      -0.02527091      -0.04665080       3.43630890      -1.96805694      -1.34365665
Si       5.75939947       1.17167490       0.77117020      -1.22615984       1.65511249      -1.35662135
Si       5.84252181       1.02126553       3.15429965      -3.75560850       4.34837780       2.70100155
Si       7.75272040       2.26430221       3.91089960      -0.09069184       0.71662086       0.21939561
Si       5.75222144       3.32725788       0.05087540      -0.02265001      -0.06616886       0.16478884
Si       7.69000252       4.57984684       0.84359704      -0.00795904      -0.21070982       0.09764290
Si       7.70042788       4.44041072       3.16694125       0.10028986      -0.04196729      -0.05720581
Si       9.58370964       5.57354518       4.03794711      -2.37581032      -0.76869994       2.47844641
Sb       1.91851523       1.04373726       0.75754367      -0.23624307       2.46160324       0.08011905
Sb      -4.30566439       6.31300493       2.22722801       1.36654960       3.81191747      -0.94569233
17
Lattice="7.7686070347 0.0 0.0 3.880901152 6.68047363 0.0 3.9133329219 2.2234180309 6.3020546695" Properties=species:S:1:pos:R:3:force:R:3 config_type=Sb_double virial="35.178448053333206 6.3934449617855496 3.307533669441452 6.3934449617855496 51.15933078906422 -4.320549699365575 3.307533669441452 -4.320549699365575 38.3881749760408" energy=1.9155020200000052 pbc="T T T"
Si      -0.06704553      -0.03008472       0.06779559      -2.61903111      -0.55492027      -0.37309324
Si       1.96599231       1.11358894       3.10298750      -0.02967435       0.08188845       5.01375347
Si       3.94194191       2.17619996       4.00313725      -0.35886989       0.19309282      -0.40407229
Si       2.00302512       3.36306944      -0.00478799       0.01640062       2.07938573      -0.66241705
Si       3.87953990       4.39461823       0.67001491      -1.01758162      -0.80835411       0.55990307
Si       3.88293621       4.48377134       3.09523567       0.03751236       0.13713273      -0.01697633
Si       5.77269226       5.49504267       3.86570281      -0.01232875      -0.09076893      -0.01890287
Si       3.91118116      -0.00494898      -0.08106693       6.84534062       2.39283730       0.22855549
Si       5.71871388       1.08009989       0.66287773      -0.09303066      -0.20774248      -0.43013398
Si       5.84883045       1.10347364       3.25288997      -0.24573942       0.31210049      -1.97300512
Si       7.85270022       2.24928785       3.91425589       0.81297427       0.57569101      -0.75826191
Si       5.83589346       3.42403004       0.07076723      -1.68043084     -10.63093233       4.36579476
Si       7.73105447       4.49940782       0.72396523       3.59262037      -2.23448993       2.82712082
Si       7.79822699       4.50927298       3.17844595      -0.11031572       0.07039043       0.11200071
Si       9.78354540       5.56984458       3.99786660      -0.10989503      -1.58985827      -1.20654572
Sb       1.99035425       1.05613821       0.83749863      -0.79987769       2.56874742      -1.09619482
Sb       2.20951567      -1.34407808      -0.60571825      -4.22807316       7.70579991      -6.16752501
17
Lattice="7.7555368295 0.0 0.0 3.9177190912 6.7366813374 0.0 3.8952270587 2.2260068168 6.3760270246" Properties=species:S:1:pos:R:3:force:R:3 config_type=Sb_double virial="26.363541470381758 -9.51364105266018 -9.312747081285334 -9.51364105266018 32.499565216211536 -0.8932812152117635 -9.312747081285334 -0.8932812152117635 46.73312460854919" energy=-0.5051649600000019 pbc="T T T"
Si      -0.00043662       0.08009612       0.01941176      -1.51039718      -0.82879909      -0.77450316
Si       1.83628709       1.09288191       3.16810736      -0.24829350      -0.18673723       5.66371112
Si       3.78282237       2.24805936       4.05639900      -1.27088213      -0.57922840       1.70786679
Si       1.95730942       3.48241513      -0.04585816       0.07690200       1.08576071      -0.25835644
Si       3.87790026       4.48380667       0.82752731      -3.18314916       2.69994978      -2.31065044
Si       3.87729846       4.46378800       3.19442233      -3.87723867       4.35632400       3.61405947
Si       5.72743178       5.63320788       3.95173897      -0.11372806       0.33132317       0.31893903
Si       3.95679526      -0.00410907      -0.00108788       1.87801226      -1.08729309      -0.58673771
Si       5.70437607       1.05054217       0.80553066       0.37337044      -1.97563842      -1.37759296
Si       5.69120195       1.05278571       3.24579254       0.59775861      -2.97557825       1.53863753
Si       7.80681602       2.28372792       3.94277215       0.25391384       0.12669491       0.25295334
Si       5.94888403       3.25405183       0.04337522       3.08752765       0.07434346      -5.96312125
Si       7.81372071       4.54361430       0.71373383       0.37415775       0.22763727      -0.37788313
Si       7.75390532       4.52502123       3.23826742       0.21640501       0.18529936       0.03318581
Si       9.68879869       5.63528755       4.03946088      -0.40419134       0.08496778       0.07710339
Sb       2.03215027       1.14220395       0.94215591      -0.13345755       0.94578468      -3.97892433
Sb       1.32926812      -3.60600199       2.13409966       3.88329003      -2.48481063       2.42131293
17
Lattice="7.7503796771 0.0 0.0 3.8937187094 6.7677207676 0.0 3.9002207073 2.2331574144 6.3153568037" Properties=species:S:1:pos:R:3:force:R:3 config_type=Sb_double virial="56.94188246463682 -7.275004200212395 -8.000988313074728 -7.275004200212395 22.07603417256489 16.21964449901286 -8.000988313074728 16.21964449901286 59.944555694957735" energy=3.866412490000002 pbc="T T T"
Si       0.02961314      -0.02442402       0.02494931       6.64553665      -3.97648310       3.47791260
Si       1.93312343       1.16240543       3.14654819      -0.08662900      -0.87379969       1.61034026
Si       3.82881008       2.26491188       4.06224156       5.98504802      -1.08201191      -4.70846524
Si       2.02164856       3.39675643      -0.03940934       0.06313985       1.70000255      -0.61910974
Si       3.97019016       4.48315113       0.83119523       0.26275871      -0.00598676       0.03690873
Si       3.84327685       4.50512938       3.25216209       0.23276415       0.20788175      -0.23904954
Si       5.83370934       5.60705605       3.93052638      -0.03102973      -0.08684144      -0.11245074
Si       3.89335144      -0.00763688      -0.00538420      -0.25423931      -2.88332841       0.52139564
Si       5.71469279       1.19121280       0.77852884      -3.07404504       7.81893394      14.92362034
Si       5.74698970       1.11830556       3.15470135       0.18108371      -0.54643152      -0.16798505
Si       7.80867471       2.24965201       3.88996071      -1.36137279      -0.08201618      -1.13912316
Si       5.88304704       3.31099964       0.08785017      -0.11946561       0.44443254       0.48446669
Si       7.87713587       4.61204455       0.80705621      -0.12301737      -0.07425275       0.10473395