2
Lattice="30.0 0.0 0.0 0.0 30.0 0.0 0.0 0.0 30.0" Properties=species:S:1:pos:R:3:force:R:3 config_type=Sb_Sb_dimer energy=0.92024294 pbc="T T T"
Sb       0.00000000       0.00000000       0.00000000     -33.13918731       0.00000000      -0.00000000
Sb       1.90000000       0.00000000       0.00000000      33.13918731      -0.00000000       0.00000000
2
Lattice="30.0 0.0 0.0 0.0 30.0 0.0 0.0 0.0 30.0" Properties=species:S:1:pos:R:3:force:R:3 config_type=Sb_Sb_dimer energy=-0.73480094 pbc="T T T"
Sb       0.00000000       0.00000000       0.00000000     -27.03324913       0.00000000       0.00000000
Sb       1.95517241       0.00000000       0.00000000      27.03324913      -0.00000000      -0.00000000
2
Lattice="30.0 0.0 0.0 0.0 30.0 0.0 0.0 0.0 30.0" Properties=species:S:1:pos:R:3:force:R:3 config_type=Sb_Sb_dimer energy=-2.07958225 pbc="T T T"
Sb       0.00000000       0.00000000       0.00000000     -21.86396888      -0.00000000      -0.00000000
Sb       2.01034483       0.00000000       0.00000000      21.86396888       0.00000000       0.00000000
2
Lattice="30.0 0.0 0.0 0.0 30.0 0.0 0.0 0.0 30.0" Properties=species:S:1:pos:R:3:force:R:3 config_type=Sb_Sb_dimer energy=-3.16147253 pbc="T T T"
Sb       0.00000000       0.00000000       0.00000000     -17.48039794       0.00000000       0.00000000
Sb       2.06551724       0.00000000       0.00000000      17.48039794      -0.00000000      -0.00000000
2
Lattice="30.0 0.0 0.0 0.0 30.0 0.0 0.0 0.0 30.0" Properties=species:S:1:pos:R:3:force:R:3 config_type=Sb_Sb_dimer energy=-4.02033541 pbc="T T T"
Sb       0.00000000       0.00000000       0.00000000     -13.76105870      -0.00000000      -0.00000000
Sb       2.12068966       0.00000000       0.00000000      13.76105870       0.00000000       0.00000000
2
Lattice="30.0 0.0 0.0 0.0 30.0 0.0 0.0 0.0 30.0" Properties=species:S:1:pos:R:3:force:R:3 config_type=Sb_Sb_dimer energy=-4.69006384 pbc="T T T"
Sb       0.00000000       0.00000000       0.00000000     -10.60975483      -0.00000000       0.00000000
Sb       2.17586207       0.00000000       0.00000000      10.60975483       0.00000000      -0.00000000
2
Lattice="30.0 0.0 0.0 0.0 30.0 0.0 0.0 0.0 30.0" Properties=species:S:1:pos:R:3:force:R:3 config_type=Sb_Sb_dimer energy=-5.19978833 pbc="T T T"
Sb       0.00000000       0.00000000       0.00000000      -7.94863550      -0.00000000       0.00000000
Sb       2.23103448       0.00000000       0.00000000       7.94863550       0.00000000      -0.00000000
2
Lattice="30.0 0.0 0.0 0.0 30.0 0.0 0.0 0.0 30.0" Properties=species:S:1:pos:R:3:force:R:3 config_type=Sb_Sb_dimer energy=-5.57471473 pbc="T T T"
Sb       0.00000000       0.00000000       0.00000000      -5.71289673       0.00000000       0.00000000
Sb       2.28620690       0.00000000       0.00000000       5.71289673      -0.00000000      -0.00000000
2
Lattice="30.0 0.0 0.0 0.0 30.0 0.0 0.0 0.0 30.0" Properties=species:S:1:pos:R:3:force:R:3 config_type=Sb_Sb_dimer energy=-5.83670564 pbc="T T T"
Sb       0.00000000       0.00000000       0.00000000      -3.84539736       0.00000000      -0.00000000
Sb       2.34137931       0.00000000       0.00000000       3.84539736      -0.00000000       0.00000000
2
Lattice="30.0 0.0 0.0 0.0 30.0 0.0 0.0 0.0 30.0" Properties=species:S:1:pos:R:3:force:R:3 config_type=Sb_Sb_dimer energy=-6.00465483 pbc="T T T"
Sb       0.00000000       0.00000000       0.00000000      -2.29547907      -0.00000000      -0.00000000
Sb       2.39655172       0.00000000       0.00000000       2.29547907       0.00000000       0.00000000
2
Lattice="30.0 0.0 0.0 0.0 30.0 0.0 0.0 0.0 30.0" Properties=species:S:1:pos:R:3:force:R:3 config_type=Sb_Sb_dimer energy=-6.0948039 pbc="T T T"
Sb       0.00000000       0.00000000       0.00000000      -1.01773285       0.00000000      -0.00000000
Sb       2.45172414       0.00000000       0.00000000       1.01773285      -0.00000000       0.00000000
2
Lattice="30.0 0.0 0.0 0.0 30.0 0.0 0.0 0.0 30.0" Properties=species:S:1:pos:R:3:force:R:3 config_type=Sb_Sb_dimer energy=-6.12104102 pbc="T T T"
Sb       0.00000000       0.00000000       0.00000000       0.02808501      -0.00000000       0.00000000
Sb       2.50689655       0.00000000       0.00000000      -0.02808501       0.00000000      -0.00000000
2
Lattice="30.0 0.0 0.0 0.0 30.0 0.0 0.0 0.0 30.0" Properties=species:S:1:pos:R:3:force:R:3 config_type=Sb_Sb_dimer energy=-6.09518648 pbc="T T T"
Sb       0.00000000       0.00000000       0.00000000       0.87646622      -0.00000000      -0.00000000
Sb       2.56206897       0.00000000       0.00000000      -0.87646622       0.00000000       0.00000000
2
Lattice="30.0 0.0 0.0 0.0 30.0 0.0 0.0 0.0 30.0" Properties=species:S:1:pos:R:3:force:R:3 config_type=Sb_Sb_dimer energy=-6.02725623 pbc="T T T"
Sb       0.00000000       0.00000000       0.00000000       1.55829774       0.00000000      -0.00000000
Sb       2.61724138       0.00000000       0.00000000      -1.55829774      -0.00000000       0.00000000
2
Lattice="30.0 0.0 0.0 0.0 30.0 0.0 0.0 0.0 30.0" Properties=species:S:1:pos:R:3:force:R:3 config_type=Sb_Sb_dimer energy=-5.92570485 pbc="T T T"
Sb       0.00000000       0.00000000       0.00000000       2.09953468      -0.00000000       0.00000000
Sb       2.67241379       0.00000000       0.00000000      -2.09953468       0.00000000      -0.00000000
2
Lattice="30.0 0.0 0.0 0.0 30.0 0.0 0.0 0.0 30.0" Properties=species:S:1:pos:R:3:force:R:3 config_type=Sb_Sb_dimer energy=-5.79763637 pbc="T T T"
Sb       0.00000000       0.00000000       0.00000000       2.52304934       0.00000000      -0.00000000
Sb       2.72758621       0.00000000       0.00000000      -2.52304934      -0.00000000       0.00000000
2
Lattice="30.0 0.0 0.0 0.0 30.0 0.0 0.0 0.0 30.0" Properties=species:S:1:pos:R:3:force:R:3 config_type=Sb_Sb_dimer energy=-5.64900477 pbc="T T T"
Sb       0.00000000       0.00000000       0.00000000       2.84799565       0.00000000      -0.00000000
Sb       2.78275862       0.00000000       0.00000000      -2.84799565      -0.00000000       0.00000000
2
Lattice="30.0 0.0 0.0 0.0 30.0 0.0 0.0 0.0 30.0" Properties=species:S:1:pos:R:3:force:R:3 config_type=Sb_Sb_dimer energy=-5.48478479 pbc="T T T"
Sb       0.00000000       0.00000000       0.00000000       3.09072992       0.00000000      -0.00000000
Sb       2.83793103       0.00000000       0.00000000      -3.09072992      -0.00000000       0.00000000
2
Lattice="30.0 0.0 0.0 0.0 30.0 0.0 0.0 0.0 30.0" Properties=species:S:1:pos:R:3:force:R:3 config_type=Sb_Sb_dimer energy=-5.3091235 pbc="T T T"
Sb       0.00000000       0.00000000       0.00000000       3.26500403      -0.00000000      -0.00000000
Sb       2.89310345       0.00000000       0.00000000      -3.26500403       0.00000000       0.00000000
2
Lattice="30.0 0.0 0.0 0.0 30.0 0.0 0.0 0.0 30.0" Properties=species:S:1:pos:R:3:force:R:3 config_type=Sb_Sb_dimer energy=-5.12546785 pbc="T T T"
Sb       0.00000000       0.00000000       0.00000000       3.38244282       0.00000000      -0.00000000
Sb       2.94827586       0.00000000       0.00000000      -3.38244282      -0.00000000       0.00000000
2
Lattice="30.0 0.0 0.0 0.0 30.0 0.0 0.0 0.0 30.0" Properties=species:S:1:pos:R:3:force:R:3 config_type=Sb_Sb_dimer energy=-4.93667421 pbc="T T T"
Sb       0.00000000       0.00000000       0.00000000       3.45289716       0.00000000      -0.00000000
Sb       3.00344828       0.00000000       0.00000000      -3.45289716      -0.00000000       0.00000000
2
Lattice="30.0 0.0 0.0 0.0 30.0 0.0 0.0 0.0 30.0" Properties=species:S:1:pos:R:3:force:R:3 config_type=Sb_Sb_dimer energy=-4.7450998 pbc="T T T"
Sb       0.00000000       0.00000000       0.00000000       3.48461066       0.00000000      -0.00000000
Sb       3.05862069       0.00000000       0.00000000      -3.48461066      -0.00000000       0.00000000
2
Lattice="30.0 0.0 0.0 0.0 30.0 0.0 0.0 0.0 30.0" Properties=species:S:1:pos:R:3:force:R:3 config_type=Sb_Sb_dimer energy=-4.55267858 pbc="T T T"
Sb       0.00000000       0.00000000       0.00000000       3.48473635       0.00000000      -0.00000000
Sb       3.11379310       0.00000000       0.00000000      -3.48473635      -0.00000000       0.00000000
2
Lattice="30.0 0.0 0.0 0.0 30.0 0.0 0.0 0.0 30.0" Properties=species:S:1:pos:R:3:force:R:3 config_type=Sb_Sb_dimer energy=-4.36099059 pbc="T T T"
Sb       0.00000000       0.00000000       0.00000000       3.45912298       0.00000000      -0.00000000
Sb       3.16896552       0.00000000       0.00000000      -3.45912298      -0.00000000       0.00000000
2
Lattice="30.0 0.0 0.0 0.0 30.0 0.0 0.0 0.0 30.0" Properties=species:S:1:pos:R:3:force:R:3 config_type=Sb_Sb_dimer energy=-4.17131619 pbc="T T T"
Sb       0.00000000       0.00000000       0.00000000       3.41271121      -0.00000000      -0.00000000
Sb       3.22413793       0.00000000       0.00000000      -3.41271121       0.00000000       0.00000000
2
Lattice="30.0 0.0 0.0 0.0 30.0 0.0 0.0 0.0 30.0" Properties=species:S:1:pos:R:3:force:R:3 config_type=Sb_Sb_dimer energy=-3.98468346 pbc="T T T"
Sb       0.00000000       0.00000000       0.00000000       3.34964341       0.00000000      -0.00000000
Sb       3.27931034       0.00000000       0.00000000      -3.34964341      -0.00000000       0.00000000
2
Lattice="30.0 0.0 0.0 0.0 30.0 0.0 0.0 0.0 30.0" Properties=species:S:1:pos:R:3:force:R:3 config_type=Sb_Sb_dimer energy=-3.80191273 pbc="T T T"
Sb       0.00000000       0.00000000       0.00000000       3.27358272       0.00000000       0.00000000
Sb       3.33448276       0.00000000       0.00000000      -3.27358272      -0.00000000      -0.00000000
2
Lattice="30.0 0.0 0.0 0.0 30.0 0.0 0.0 0.0 30.0" Properties=species:S:1:pos:R:3:force:R:3 config_type=Sb_Sb_dimer energy=-3.62364253 pbc="T T T"
Sb       0.00000000       0.00000000       0.00000000       3.18720578      -0.00000000      -0.00000000
Sb       3.38965517       0.00000000       0.00000000      -3.18720578       0.00000000       0.00000000
2
Lattice="30.0 0.0 0.0 0.0 30.0 0.0 0.0 0.0 30.0" Properties=species:S:1:pos:R:3:force:R:3 config_type=Sb_Sb_dimer energy=-3.45036443 pbc="T T T"
Sb       0.00000000       0.00000000       0.00000000       3.09287545      -0.00000000      -0.00000000
Sb       3.44482759       0.00000000       0.00000000      -3.09287545       0.00000000       0.00000000
2
Lattice="30.0 0.0 0.0 0.0 30.0 0.0 0.0 0.0 30.0" Properties=species:S:1:pos:R:3:force:R:3 config_type=Sb_Sb_dimer energy=-3.28244844 pbc="T T T"
Sb       0.00000000       0.00000000       0.00000000       2.99306080      -0.00000000      -0.00000000
Sb       3.50000000       0.00000000       0.00000000      -2.99306080       0.00000000       0.00000000
2
Lattice="30.0 0.0 0.0 0.0 30.0 0.0 0.0 0.0 30.0" Properties=species:S:1:pos:R:3:force:R:3 config_type=Sb_Sb_dimer energy=-2.47086987 pbc="T T T"
Sb       0.00000000       0.00000000       0.00000000       2.41400899      -0.00000000      -0.00000000
Sb       3.80000000       0.00000000       0.00000000      -2.41400899       0.00000000       0.00000000
2
Lattice="30.0 0.0 0.0 0.0 30.0 0.0 0.0 0.0 30.0" Properties=species:S:1:pos:R:3:force:R:3 config_type=Sb_Sb_dimer energy=-2.02576239 pbc="T T T"
Sb       0.00000000       0.00000000       0.00000000       2.04179821       0.00000000       0.00000000
Sb       4.00000000       0.00000000       0.00000000      -2.04179821      -0.00000000      -0.00000000
2
Lattice="30.0 0.0 0.0 0.0 30.0 0.0 0.0 0.0 30.0" Properties=species:S:1:pos:R:3:force:R:3 config_type=Sb_Sb_dimer energy=-1.20655032 pbc="T T T"
Sb       0.00000000       0.00000000       0.00000000       1.27874254      -0.00000000       0.00000000
Sb       4.50000000       0.00000000       0.00000000      -1.27874254       0.00000000      -0.00000000
2
Lattice="30.0 0.0 0.0 0.0 30.0 0.0 0.0 0.0 30.0" Properties=species:S:1:pos:R:3:force:R:3 config_type=Sb_Sb_dimer energy=-0.1 pbc="T T T"
Sb       0.00000000       0.00000000       0.00000000       0.75742149       0.00000000      -0.00000000
Sb       5.00000000       0.00000000       0.00000000      -0.75742149      -0.00000000       0.00000000
2
Lattice="30.0 0.0 0.0 0.0 30.0 0.0 0.0 0.0 30.0" Properties=species:S:1:pos:R:3:force:R:3 config_type=Sb_Sb_dimer energy=0.92024294 pbc="T T T"
Sb       0.00000000       0.00000000       0.00000000     -33.13918731       0.00000000      -0.00000000
Sb       1.90000000       0.00000000       0.00000000      33.13918731      -0.00000000       0.00000000
2
Lattice="30.0 0.0 0.0 0.0 30.0 0.0 0.0 0.0 30.0" Properties=species:S:1:pos:R:3:force:R:3 config_type=Sb_Sb_dimer energy=-0.73480094 pbc="T T T"
Sb       0.00000000       0.00000000       0.00000000     -27.03324913       0.00000000       0.00000000
Sb       1.95517241       0.00000000       0.00000000      27.03324913      -0.00000000      -0.00000000
2
Lattice="30.0 0.0 0.0 0.0 30.0 0.0 0.0 0.0 30.0" Properties=species:S:1:pos:R:3:force:R:3 config_type=Sb_Sb_dimer energy=-2.07958225 pbc="T T T"
Sb       0.00000000       0.00000000       0.00000000     -21.86396888      -0.00000000      -0.00000000
Sb       2.01034483       0.00000000       0.00000000      21.86396888       0.00000000       0.00000000
2
Lattice="30.0 0.0 0.0 0.0 30.0 0.0 0.0 0.0 30.0" Properties=species:S:1:pos:R:3:force:R:3 config_type=Sb_Sb_dimer energy=-3.16147253 pbc="T T T"
Sb       0.00000000       0.00000000       0.00000000     -17.48039794       0.00000000       0.00000000
Sb       2.06551724       0.00000000       0.00000000      17.48039794      -0.00000000      -0.00000000
2
Lattice="30.0 0.0 0.0 0.0 30.0 0.0 0.0 0.0 30.0" Properties=species:S:1:pos:R:3:force:R:3 config_type=Sb_Sb_dimer energy=-4.02033541 pbc="T T T"
Sb       0.00000000       0.00000000       0.00000000     -13.76105870      -0.00000000      -0.00000000
Sb       2.12068966       0.00000000       0.00000000      13.76105870       0.00000000       0.00000000
2
Lattice="30.0 0.0 0.0 0.0 30.0 0.0 0.0 0.0 30.0" Properties=species:S:1:pos:R:3:force:R:3 config_type=Sb_Sb_dimer energy=-4.69006384 pbc="T T T"
Sb       0.00000000       0.00000000       0.00000000     -10.60975483      -0.00000000       0.00000000
Sb       2.17586207       0.00000000       0.00000000      10.60975483       0.00000000      -0.00000000
2
Lattice="30.0 0.0 0.0 0.0 30.0 0.0 0.0 0.0 30.0" Properties=species:S:1:pos:R:3:force:R:3 config_type=Sb_Sb_dimer energy=-5.19978833 pbc="T T T"
Sb       0.00000000       0.00000000       0.00000000      -7.94863550      -0.00000000       0.00000000
Sb       2.23103448       0.00000000       0.00000000       7.94863550       0.00000000      -0.00000000
2
Lattice="30.0 0.0 0.0 0.0 30.0 0.0 0.0 0.0 30.0" Properties=species:S:1:pos:R:3:force:R:3 config_type=Sb_Sb_dimer energy=-5.57471473 pbc="T T T"
Sb       0.00000000       0.00000000       0.00000000      -5.71289673       0.00000000       0.00000000
Sb       2.28620690       0.00000000       0.00000000       5.71289673      -0.00000000      -0.00000000
2
Lattice="30.0 0.0 0.0 0.0 30.0 0.0 0.0 0.0 30.0" Properties=species:S:1:pos:R:3:force:R:3 config_type=Sb_Sb_dimer energy=-5.83670564 pbc="T T T"
Sb       0.00000000       0.00000000       0.00000000      -3.84539736       0.00000000      -0.00000000
Sb       2.34137931       0.00000000       0.00000000       3.84539736      -0.00000000       0.00000000
2
Lattice="30.0 0.0 0.0 0.0 30.0 0.0 0.0 0.0 30.0" Properties=species:S:1:pos:R:3:force:R:3 config_type=Sb_Sb_dimer energy=-6.00465483 pbc="T T T"
Sb       0.00000000       0.00000000       0.00000000      -2.29547907      -0.00000000      -0.00000000
Sb       2.39655172       0.00000000       0.00000000       2.29547907       0.00000000       0.00000000
2
Lattice="30.0 0.0 0.0 0.0 30.0 0.0 0.0 0.0 30.0" Properties=species:S:1:pos:R:3:force:R:3 config_type=Sb_Sb_dimer energy=-6.0948039 pbc="T T T"
Sb       0.00000000       0.00000000       0.00000000      -1.01773285       0.00000000      -0.00000000
Sb       2.45172414       0.00000000       0.00000000       1.01773285      -0.00000000       0.00000000
2
Lattice="30.0 0.0 0.0 0.0 30.0 0.0 0.0 0.0 30.0" Properties=species:S:1:pos:R:3:force:R:3 config_type=Sb_Sb_dimer energy=-6.12104102 pbc="T T T"
Sb       0.00000000       0.00000000       0.00000000       0.02808501      -0.00000000       0.00000000
Sb       2.50689655       0.00000000       0.00000000      -0.02808501       0.00000000      -0.00000000
2
Lattice="30.0 0.0 0.0 0.0 30.0 0.0 0.0 0.0 30.0" Properties=species:S:1:pos:R:3:force:R:3 config_type=Sb_Sb_dimer energy=-6.09518648 pbc="T T T"
Sb       0.00000000       0.00000000       0.00000000       0.87646622      -0.00000000      -0.00000000
Sb       2.56206897       0.00000000       0.00000000      -0.87646622       0.00000000       0.00000000
2
Lattice="30.0 0.0 0.0 0.0 30.0 0.0 0.0 0.0 30.0" Properties=species:S:1:pos:R:3:force:R:3 config_type=Sb_Sb_dimer energy=-6.02725623 pbc="T T T"
Sb       0.00000000       0.00000000       0.00000000       1.55829774       0.00000000      -0.00000000
Sb       2.61724138       0.00000000       0.00000000      -1.55829774      -0.00000000       0.00000000
2
Lattice="30.0 0.0 0.0 0.0 30.0 0.0 0.0 0.0 30.0" Properties=species:S:1:pos:R:3:force:R:3 config_type=Sb_Sb_dimer energy=-5.92570485 pbc="T T T"
Sb       0.00000000       0.00000000       0.00000000       2.09953468      -0.00000000       0.00000000
Sb       2.67241379       0.00000000       0.00000000      -2.09953468       0.00000000      -0.00000000
2
Lattice="30.0 0.0 0.0 0.0 30.0 0.0 0.0 0.0 30.0" Properties=species:S:1:pos:R:3:force:R:3 config_type=Sb_Sb_dimer energy=-5.79763637 pbc="T T T"
Sb       0.00000000       0.00000000       0.00000000       2.52304934       0.00000000      -0.00000000
Sb       2.72758621       0.00000000       0.00000000      -2.52304934      -0.00000000       0.00000000
2
Lattice="30.0 0.0 0.0 0.0 30.0 0.0 0.0 0.0 30.0" Properties=species:S:1:pos:R:3:force:R:3 config_type=Sb_Sb_dimer energy=-5.64900477 pbc="T T T"
Sb       0.00000000       0.00000000       0.00000000       2.84799565       0.00000000      -0.00000000
Sb       2.78275862       0.00000000       0.00000000      -2.84799565      -0.00000000       0.00000000
2
Lattice="30.0 0.0 0.0 0.0 30.0 0.0 0.0 0.0 30.0" Properties=species:S:1:pos:R:3:force:R:3 config_type=Sb_Sb_dimer energy=-5.48478479 pbc="T T T"
Sb       0.00000000       0.00000000       0.00000000       3.09072992       0.00000000      -0.00000000
Sb       2.83793103       0.00000000       0.00000000      -3.09072992      -0.00000000       0.00000000
2
Lattice="30.0 0.0 0.0 0.0 30.0 0.0 0.0 0.0 30.0" Properties=species:S:1:pos:R:3:force:R:3 config_type=Sb_Sb_dimer energy=-5.3091235 pbc="T T T"
Sb       0.00000000       0.00000000       0.00000000       3.26500403      -0.00000000      -0.00000000
Sb       2.89310345       0.00000000       0.00000000      -3.26500403       0.00000000       0.00000000
2
Lattice="30.0 0.0 0.0 0.0 30.0 0.0 0.0 0.0 30.0" Properties=species:S:1:pos:R:3:force:R:3 config_type=Sb_Sb_dimer energy=-5.12546785 pbc="T T T"
Sb       0.00000000       0.00000000       0.00000000       3.38244282       0.00000000      -0.00000000
Sb       2.94827586       0.00000000       0.00000000      -3.38244282      -0.00000000       0.00000000
2
Lattice="30.0 0.0 0.0 0.0 30.0 0.0 0.0 0.0 30.0" Properties=species:S:1:pos:R:3:force:R:3 config_type=Sb_Sb_dimer energy=-4.93667421 pbc="T T T"
Sb       0.00000000       0.00000000       0.00000000       3.45289716       0.00000000      -0.00000000
Sb       3.00344828       0.00000000       0.00000000      -3.45289716      -0.00000000       0.00000000
2
Lattice="30.0 0.0 0.0 0.0 30.0 0.0 0.0 0.0 30.0" Properties=species:S:1:pos:R:3:force:R:3 config_type=Sb_Sb_dimer energy=-4.7450998 pbc="T T T"
Sb       0.00000000       0.00000000       0.00000000       3.48461066       0.00000000      -0.00000000
Sb       3.05862069       0.00000000       0.00000000      -3.48461066      -0.00000000       0.00000000
2
Lattice="30.0 0.0 0.0 0.0 30.0 0.0 0.0 0.0 30.0" Properties=species:S:1:pos:R:3:force:R:3 config_type=Sb_Sb_dimer energy=-4.55267858 pbc="T T T"
Sb       0.00000000       0.00000000       0.00000000       3.48473635       0.00000000      -0.00000000
Sb       3.11379310       0.00000000       0.00000000      -3.48473635      -0.00000000       0.00000000
2
Lattice="30.0 0.0 0.0 0.0 30.0 0.0 0.0 0.0 30.0" Properties=species:S:1:pos:R:3:force:R:3 config_type=Sb_Sb_dimer energy=-4.36099059 pbc="T T T"
Sb       0.00000000       0.00000000       0.00000000       3.45912298       0.00000000      -0.00000000
Sb       3.16896552       0.00000000       0.00000000      -3.45912298      -0.00000000       0.00000000
2
Lattice="30.0 0.0 0.0 0.0 30.0 0.0 0.0 0.0 30.0" Properties=species:S:1:pos:R:3:force:R:3 config_type=Sb_Sb_dimer energy=-4.17131619 pbc="T T T"
Sb       0.00000000       0.00000000       0.00000000       3.41271121      -0.00000000      -0.00000000
Sb       3.22413793       0.00000000       0.00000000      -3.41271121       0.00000000       0.00000000
2
Lattice="30.0 0.0 0.0 0.0 30.0 0.0 0.0 0.0 30.0" Properties=species:S:1:pos:R:3:force:R:3 config_type=Sb_Sb_dimer energy=-3.98468346 pbc="T T T"
Sb       0.00000000       0.00000000       0.00000000       3.34964341       0.00000000      -0.00000000
Sb       3.27931034       0.00000000       0.00000000      -3.34964341      -0.00000000       0.00000000
2
Lattice="30.0 0.0 0.0 0.0 30.0 0.0 0.0 0.0 30.0" Properties=species:S:1:pos:R:3:force:R:3 config_type=Sb_Sb_dimer energy=-3.80191273 pbc="T T T"
Sb       0.00000000       0.00000000       0.00000000       3.27358272       0.00000000       0.00000000
Sb       3.33448276       0.00000000       0.00000000      -3.27358272      -0.00000000      -0.00000000
2
Lattice="30.0 0.0 0.0 0.0 30.0 0.0 0.0 0.0 30.0" Properties=species:S:1:pos:R:3:force:R:3 config_type=Sb_Sb_dimer energy=-3.62364253 pbc="T T T"
Sb       0.00000000       0.00000000       0.00000000       3.18720578      -0.00000000      -0.00000000
Sb       3.38965517       0.00000000       0.00000000      -3.18720578       0.00000000       0.00000000
2
Lattice="30.0 0.0 0.0 0.0 30.0 0.0 0.0 0.0 30.0" Properties=species:S:1:pos:R:3:force:R:3 config_type=Sb_Sb_dimer energy=-3.45036443 pbc="T T T"
Sb       0.00000000       0.00000000       0.00000000       3.09287545      -0.00000000      -0.00000000
Sb       3.44482759       0.00000000       0.00000000      -3.09287545       0.00000000       0.00000000
2
Lattice="30.0 0.0 0.0 0.0 30.0 0.0 0.0 0.0 30.0" Properties=species:S:1:pos:R:3:force:R:3 config_type=Sb_Sb_dimer energy=-3.28244844 pbc="T T T"
Sb       0.00000000       0.00000000       0.00000000       2.99306080      -0.00000000      -0.00000000
Sb       3.50000000       0.00000000       0.00000000      -2.99306080       0.00000000       0.00000000
2
Lattice="30.0 0.0 0.0 0.0 30.0 0.0 0.0 0.0 30.0" Properties=species:S:1:pos:R:3:force:R:3 config_type=Sb_Sb_dimer energy=-2.47086987 pbc="T T T"
Sb       0.00000000       0.00000000       0.00000000       2.41400899      -0.00000000      -0.00000000
Sb       3.80000000       0.00000000       0.00000000      -2.41400899       0.00000000       0.00000000
2
Lattice="30.0 0.0 0.0 0.0 30.0 0.0 0.0 0.0 30.0" Properties=species:S:1:pos:R:3:force:R:3 config_type=Sb_Sb_dimer energy=-2.02576239 pbc="T T T"
Sb       0.00000000       0.00000000       0.00000000       2.04179821       0.00000000       0.00000000
Sb       4.00000000       0.00000000       0.00000000      -2.04179821      -0.00000000      -0.00000000
2
Lattice="30.0 0.0 0.0 0.0 30.0 0.0 0.0 0.0 30.0" Properties=species:S:1:pos:R:3:force:R:3 config_type=Sb_Sb_dimer energy=-1.20655032 pbc="T T T"
Sb       0.00000000       0.00000000       0.00000000       1.27874254      -0.00000000       0.00000000
Sb       4.50000000       0.00000000       0.00000000      -1.27874254       0.00000000      -0.00000000
2
Lattice="30.0 0.0 0.0 0.0 30.0 0.0 0.0 0.0 30.0" Properties=species:S:1:pos:R:3:force:R:3 config_type=Sb_Sb_dimer energy=-0.1 pbc="T T T"
Sb       0.00000000       0.00000000       0.00000000       0.75742149       0.00000000      -0.00000000
Sb       5.00000000       0.00000000       0.00000000      -0.75742149      -0.00000000       0.00000000
