65
Lattice="10.8932875034 0.0 0.0 0.0 10.946765536 0.0 0.0 0.0 10.8848415654" Properties=species:S:1:pos:R:3:force:R:3 config_type=Sb_disordered virial="4.150201411718214 -0.4812406467724273 0.801989059070074 -0.4812406467724273 6.238195150656118 -1.2797083640745601 0.801989059070074 -1.2797083640745601 3.8287966942011096" energy=-4.216986220000024 pbc="T T T"
Si       1.88656302       1.81968306       0.22437660      -0.05102643       0.03795789      -0.01667306
Si       0.56756737       3.37392061       1.96813137       0.02651153       0.00825309      -0.01981097
Si       6.21499812       1.81331013       1.71623769      -0.06350498       0.01782545       0.02410459
Si       3.77581962       0.63460088       1.62759859       0.08410226       0.01706974      -0.45352491
Si       9.47305620       3.25549631       0.44232232      -0.04527441      -0.01688338       0.01409963
Si       8.70473658       0.93504338       0.99714227       0.01763051       0.00766607      -0.01407240
Si       1.42734737       6.43333417       2.73989379       0.02954947      -0.11265291      -0.06479261
Si       3.01041991       4.31935673       2.11797362      -0.02605844       0.08158362      -0.03848014
Si       4.39134548       4.86422928       0.24694909       0.01896701       0.06272296       0.02194860
Si       4.15866350       6.65980755       3.31281685       0.00427574       0.13641179      -0.02877197
Si       5.85194505       6.42415073       1.66821375      -0.03338154      -0.05325206      -0.01014544
Si       7.63191628       4.39336711       1.75681136       0.08454111       0.00948992       0.00740481
Si       9.96131070       5.39817009       2.56896151       0.04067596       0.00703119      -0.02795916
Si       8.46887822       7.11376756       1.01692031      -0.00128154      -0.00603206       0.04261786
Si       1.73372708       9.91202287       2.66201895      -0.07583329       0.12979459       0.04715156
Si       2.55997483       7.92373822       1.02047127       0.00888273      -0.03946616       0.01945794
Si       4.58581604       9.16626484       2.42642973       0.00929680      -0.09785665       0.08855331
Si       6.90999938       9.90703597       0.67909461      -0.01070074      -0.02012464       0.03869750
Si      10.01972997      10.09861392       2.22143116      -0.10315387      -0.02580410       0.00808749
Si      10.64112781       8.45723907       0.56923028       0.04578302       0.01630495      -0.04345873
Si       7.89920815       8.72904841       2.68932381       0.12234289      -0.05092061      -0.13772531
Si       1.61837173       2.94934433       4.19050990       0.03254894       0.04722124       0.00366141
Si       5.24227556       1.46172301       5.99849785       0.53158061       0.33353869       0.56239247
Si       6.61049306       0.42599002       3.96431620       0.28648684       0.01764933      -0.04812734
Si       3.92536181       2.02872311       3.82700681       0.04120818       1.28020551      -0.59125018
Si       7.58938321       3.07229154       4.23682185       0.09740210       0.03800998      -0.07674909
Si       9.13932955       0.72776666       4.11461386      -0.01418043       0.01250490      -0.00089923
Si      10.66393776       2.09915344       5.67217720       0.01429855      -0.01000866      -0.00833615
Si       8.35381809       3.38764036       6.61289051      -0.02978335      -0.00933381       0.06817863
Si       0.10689220       4.65773574       6.43444200       0.04046180      -0.00866397       0.01256043
Si       2.08644040       5.41573807       5.16753470      -0.01073592       0.02561056       0.01919625
Si       5.50097263       3.93409966       3.78308573      -0.00390765      -0.09172969      -0.06910690
Si       4.55165546       5.48179664       5.57575179       0.02304254      -0.05822595       0.00920240
Si       4.69813849       3.63249921       7.17760474      -0.04755925       0.06031161       0.04470326
Si       9.10324296       5.53071133       4.91027152      -0.04654167       0.00600965      -0.01536738
Si       0.78300720       8.19803846       4.30060576      -0.13471948      -0.21338910      -0.06776649
Si       1.89147419       8.10910749       6.38666192      -0.03377292       0.05146839      -0.05365296
Si      -0.06852307       9.87879835       7.17554366      -0.03377115       0.02862915       0.01996698
Si       4.49234928       8.06077171       6.38616253       0.06139621      -0.06077816      -0.01050551
Si       5.91816775       8.81089165       4.39098075       0.06899887      -0.00472486       0.05397834
Si       9.21331539       8.04397957       4.72579697      -0.03780719      -0.00460625       0.02583496
Si       8.91650387       9.93091694       5.90949570      -0.00435653      -0.00728972       0.01358552
Si       3.37700578       2.15866759       9.21348120       0.00965176      -0.01843376       0.01262020
Si       0.46741210       1.69626183       7.89010911      -0.01910898      -0.01054199       0.00583917
Si       2.36341067       0.16101443       8.06194848      -0.01737371       0.06164620      -0.17650784
Si       0.58032634       3.58118240       9.62858263       0.02008510      -0.00222581      -0.01360451
Si       5.22561990       2.73155169      10.58158094       0.01176768       0.01336855      -0.01970842
Si       6.76001688       2.83153385       8.40749825       0.00611835      -0.01749066      -0.02542183
Si      10.39130859       0.10326650       9.64382442      -0.02712806       0.00113663       0.02138878
Si       7.65203231       0.60920401       9.36184308      -0.03817047      -0.00015756       0.02557831
Si       2.88642451       6.14095266       9.75364169      -0.00483804      -0.01078124      -0.01545099
Si       2.40156747       4.48726265       8.16367848      -0.00756064       0.04032522      -0.00493601
Si       6.97141498       4.88394250      10.00552483      -0.02361911      -0.00503750      -0.00701197
Si       4.97889074       6.32374569       8.47748230       0.00513563      -0.07583501       0.05801534
Si      10.14574151       5.60981841       8.44889369      -0.00699069      -0.00176217       0.01179645
Si       7.80377511       5.73404798       7.83879129      -0.01116371      -0.02674406      -0.02690601
Si       1.76154662       8.06183804       8.79828869       0.00595901       0.06169764       0.02764947
Si       1.78286795      10.17319333      10.40534237      -0.01555056       0.02153327      -0.05196531
Si       5.25043789       7.99017005      10.75386165       0.00059846      -0.05040078      -0.07428781
Si       4.84764232      10.24767891       7.46031474       0.08067401      -0.01839823       0.31279849
Si       4.42813907      10.30828808      10.25336056       0.01784906       0.03002561      -0.02431607
Si       7.14159676       9.80614956       7.82449657       0.04982168       0.00825097      -0.05092056
Si       7.46850280       7.94290520       9.38104556      -0.02203808      -0.03490653       0.03024622
Si      10.01423157       8.20327909       9.11234236       0.03103014       0.03365126       0.03455935
Sb      -7.48374515      10.68597237       4.76013119      -0.92778177      -1.54044760       0.60233750
65
Lattice="11.0146741622 0.0 0.0 0.0 11.0079020231 0.0 0.0 0.0 10.9844996524" Properties=species:S:1:pos:R:3:force:R:3 config_type=Sb_disordered virial="13.369729220168402 10.913330626600125 -0.41836876088019537 10.913330626600125 24.08735058910085 3.631374250455815 -0.41836876088019537 3.631374250455815 11.732857758482588" energy=-0.6785718600000337 pbc="T T T"
Si       2.20751825       0.19552425       2.68171193       0.10054808      -0.02703335      -0.01187117
Si       4.91176999       2.73799371       1.19738154       0.03782741      -0.05439691       0.00978313
Si       6.60637489       1.85984596       3.24928167      -0.51211091       0.13427920      -0.67973308
Si       4.21055468       0.43245746       0.99660163      -0.04065302      -0.02159052       0.06577977
Si       9.10704345       1.04951028       3.30990213       0.90448476      -0.57317094      -2.25975695
Si      10.63981677       1.81991020       1.37299417       0.05571080       0.05419285      -0.01123448
Si       8.55614593       2.64893161       0.17468030       0.03532939       0.00133538      -0.02194229
Si       1.75455143       6.06041839       2.32796268      -0.02672425      -0.01044736       0.04085453
Si       3.51521478       4.15084109       2.99945109       0.01089461       0.01264407       0.03014652
Si       2.93600614       4.25687792       0.65551070       0.04749835      -0.00245012      -0.03859279
Si       6.03298621       4.63632801       3.29271935      -0.04565923      -0.00716157       0.00518959
Si      10.65566281       4.43381416       2.11821722       0.00003745      -0.06882630      -0.03913742
Si       7.64711491       4.78168299       1.18569245      -0.01224271       0.06193215      -0.02444689
Si       9.44981915       6.54883031       3.40060686       0.03477135       0.07454542      -0.01767940
Si      10.49765759       5.76036223      10.98375919      -0.01592487       0.01867348       0.03369311
Si       3.03808896       8.85971089       0.29498850       0.02648209      -0.04571663       0.02484303
Si       0.66656621      10.21828205       0.99503653      -0.02465036       0.03851447      -0.02017260
Si       0.04223316       7.90089324       1.58507101      -0.02355886      -0.05872552       0.00277563
Si       7.02846183       7.35627258       2.04055149      -0.06024970      -0.02436957      -0.10219367
Si       6.54119883      11.00380482       1.62255523      -0.04059238      -0.06347737      -0.08795177
Si       3.79652231       7.37807692       2.55961991       0.05826902       0.04577359       0.00280770
Si       5.44098069       7.59333493       0.08191566      -0.02895639       0.02346226       0.01971948
Si       8.52629222       9.31303976       1.86330884      -0.06852442      -0.03020561      -0.00899651
Si       0.32929149       3.68281966       4.74897909       0.12991957      -0.07406940      -0.00542383
Si       0.30223794       1.07677090       4.33611778       0.27474164       0.02301235      -0.13221765
Si       2.74509551       2.44019395       4.47187048      -0.01989901       0.00090144      -0.00376097
Si       4.65808105       0.81113908       4.96509657      -0.12702407       0.08552537      -0.09117155
Si       7.17645099       0.07112519       5.38208059      -7.49818565      -9.34128190      -0.62518895
Si       1.12659240       6.38186095       4.93041265       0.01863169       0.02308548       0.03388552
Si       3.48852812       6.91711543       5.84819004       0.00265540      -0.02590099       0.00925690
Si       5.71706195       6.86721911       4.68645911       0.00250233      -0.04823918       0.01967659
Si       5.20710342       3.67197996       5.89141098      -0.04377455       0.04702208       0.03545148
Si       8.56071164       6.80607538       6.36841681       0.04821456       0.22410765       0.01692245
Si       8.19259412       3.93217597       6.57390697      -0.09926441       1.80233577       0.51861990
Si      10.64116191       5.13340867       6.76960502      -0.05037953       0.05039191       0.04414976
Si       8.58931050       3.88149967       4.02604784       0.04530801       0.88813697      -0.64998933
Si       0.90892374       8.72728856       4.18000112       0.01079750      -0.05361048      -0.02815102
Si       0.15818299      10.42345081       6.22503570      -0.03757300      -0.04369285       0.04650543
Si       2.70487623       9.61702090       6.51217582      -0.00857637       0.01389275       0.02600438
Si       3.50170121       9.55702479       4.00073355       0.02463304       0.05156403       0.05483544
Si       6.19449857       9.25656254       4.02064193       0.02513390      -0.08810662      -0.24875647
Si       9.10433198       8.91528647       4.39513714       0.01317025      -0.03526402      -0.01332119
Si       1.16535411       2.63056556      10.60604189       0.00423757       0.03786546      -0.06780847
Si       1.29679456       0.21487541       9.88159455       0.03002903       0.02414671       0.00338753
Si       3.76832962       0.98954473       7.31564298      -0.02584094       0.01988702       0.02580637
Si       6.01931594       1.98912539       7.62234286      -0.36945382       0.02821430       0.27115557
Si       3.77935628      10.89888853       9.57937415      -0.01584553       0.01478370      -0.04174734
Si       6.01807387       3.19362581       9.86069074       0.01089054       0.01707929      -0.01233773
Si       9.57555378       3.13660145       8.94271474       0.11393408       0.07231738       0.34760191
Si       7.44681540       0.76783418      10.34182022      -0.00022956      -0.04339823      -0.00839297
Si       9.94226766       0.57546041       8.56597331      -0.02118970       0.06927918      -0.05618597
Si       0.49392691       4.51485168       9.24655020      -0.01412910      -0.00597508      -0.01872079
Si       6.34691259       6.91067384       7.33925721       0.08087250      -0.03953748      -0.02852542
Si       4.42396701       5.22911877       7.70449233      -0.02102472      -0.04182282      -0.01915215
Si       4.45964662       5.55902919      10.19036169       0.00289868       0.01204445      -0.00139809
Si       7.95048484       6.58336794      10.22759464       0.03531823      -0.01748677       0.06708060
Si       7.41746414       4.80975083       8.72698179      -0.02317592      -0.03960226       0.13125162
Si       3.33845546       7.69438946       8.37672700       0.00411292       0.01387826      -0.01480491
Si       1.27054557       7.66811313       9.97492782      -0.01062879      -0.00298754       0.01080705
Si       7.19917466      10.70839227       7.80480308      -0.12332588      -0.34785797       0.31979694
Si       5.50317725       8.92442956       8.83288588       0.05139755      -0.00797535       0.04707074
Si       9.41133766      10.17752413      10.69954287      -0.02856452       0.00060122      -0.02272041
Si       9.33999804       9.17231089       7.33007826      -0.08244579      -0.12404705       0.00864755
Si       9.77020140       8.12561881       9.51308849       0.01610535       0.01591588      -0.02088895
Sb      -2.60049224       1.66781306       5.62429604       7.26302028       7.36708625       3.16086694
65
Lattice="11.0580315118 0.0 0.0 0.0 11.0228744458 0.0 0.0 0.0 10.9689690222" Properties=species:S:1:pos:R:3:force:R:3 config_type=Sb_disordered virial="14.358644194881073 -5.150248975849345 9.701662426917757 -5.150248975849345 27.062554544368787 6.435057650710645 9.701662426917757 6.435057650710645 20.891648142350817" energy=0.06383885999997574 pbc="T T T"
Si       2.08513338       2.78890491       2.19567434       0.04297727       0.01113887      -0.01001375
Si       1.63639877       0.98144320       0.47206834       0.00927305      -0.07147753       0.04293917
Si       3.65208825       0.63865030       2.77623018       0.00664135       0.03551558      -0.03846830
Si       5.34329425       2.76357215       2.36455411      -0.08248664       0.00768500      -0.23091800
Si       5.21692870       1.21529389       0.37911981      -0.06927129      -0.03393317       0.03433447
Si       9.16513719       1.18520650       1.65177992      -0.01880198      -0.00343498       0.01391714
Si       7.75960261       3.22236230       1.66753735       0.01898858       0.02471510       0.11499440
Si      10.65394835       2.51439116       3.56837761      -0.00211402      -0.04484985       0.04063954
Si       1.98040080       5.07578612       3.20945183       0.02470049       0.03281414      -0.00558590
Si       0.99488527       7.18739786       2.20767555       0.00845214       0.02615875       0.03670966
Si       0.42012151       5.71408547       0.33609315      -0.06467056      -0.05415169      -0.12472978
Si       4.53844531       4.78955713       1.11138208      -0.00833900      -0.03675751       0.02555402
Si       6.59198934       6.63842295       2.62075774       0.00460784      -0.01650726       0.06408721
Si       4.69188686       5.51290011       3.61664178      -0.10161665       0.00063807      -0.02675449
Si       8.99861476       5.42920975       2.23949378       0.03248516       0.10414748      -0.11669386
Si       2.01776258       9.39732452       1.32785775       0.00900449      -0.00702087       0.03866249
Si       4.53310115       9.16218409       2.00464582      -0.03230897       0.03853173      -0.00166595
Si       5.90791306       8.33948916       0.01643450       0.02792537       0.00266758      -0.03377795
Si       7.01666445      10.66889439       0.77770612      -0.00184089      -0.00703495      -0.00562375
Si      11.00950250      10.36063555       2.45450678       0.00207164       0.04636307       0.00690513
Si       7.82365564       9.98994354       3.19679738      -0.00943145       0.02833794       0.02960384
Si       8.47138138       8.13508248       0.86145962       0.01609692      -0.02203197       0.02814631
Si       9.88245519       7.82913664       3.18149639      -0.01676944      -0.00535881      -0.00897230
Si       0.46710310       1.25417242       5.68368270       0.02911044       0.00759807      -0.01730003
Si       6.63850322       2.46346863       5.35635042      -1.05497329      -1.28259880      -3.07988509
Si       5.41634452       0.16037881       4.63135718      -0.04156879      -0.09121025       0.05499054
Si       7.52367974       0.12919240       6.17367230       0.12470867      -0.61605794      -0.08666211
Si       0.97429124       4.32756751       5.29823202      -0.01906248      -0.00427403       0.02175048
Si       1.91845949       6.85151998       6.00812789      -0.01792312      -0.02826087      -0.02167145
Si       5.50899681       4.68424962       5.94499542      -1.26646082       1.04076487      -1.26561749
Si       7.01474849       7.25891069       6.89307185      -0.04568074      -0.15706183      -0.06944211
Si       8.39430731       3.82419239       4.50998471       0.01990871       0.01460878      -0.10278877
Si      10.03353022       5.58387529       6.25281368       0.05996940       0.09563739      -0.10450906
Si       7.90686276       6.44732011       4.92293368      -0.03501793       0.02332957      -0.03950502
Si       3.17345136       7.66294818       3.74173982      -0.03200144       0.00730592      -0.00251312
Si       3.73284310      10.14941784       6.14471316      -0.02168225      -0.00323261      -0.00246921
Si       1.86269335      10.83157784       4.28748375      -0.02137000      -0.00692773       0.05506927
Si       1.37459541       9.45053519       6.99825190      -0.01072427       0.01545154      -0.02895095
Si       6.02855761       8.68871775       4.31920269       0.03298773      -0.03423603      -0.04784931
Si       4.52557151       7.54026682       6.44793328       0.03376938      -0.05490284      -0.00138603
Si       9.58527121      10.56219974       5.03779779       0.05279053      -0.00286891      -0.01667494
Si      10.42963195       8.28542879       5.67671471       0.04755690       0.00443515       0.00898943
Si       1.84074673       2.93887787       7.30871828      -0.00028626       0.00654963       0.04749082
Si       3.33182439       0.55838817       9.83972212       0.04223787       0.01257793      -0.00943044
Si       0.82066576       2.99035222       9.41985170      -0.00307892       0.05815779      -0.01830377
Si       3.86340509       1.63122507       7.80188005      -0.06878751      -0.04553272      -0.02586819
Si       7.07681404       2.75068001      10.28290118       0.04761989      -0.08575584       0.83287149
Si       4.76157089       3.62088231       9.31133480      -0.29317964      -0.03847460       0.14667237
Si       5.84808675       0.00691610       8.05095086       0.01914145      -0.03953140       0.02886172
Si      10.41937602       0.18496164       7.68231692      -0.04621170       0.05384795       0.01906536
Si       8.90710132       2.33211793       8.65566373       3.36872989      -2.11768272       2.78910841
Si      10.39400563       0.89859863      10.46674359       0.35583384      -0.17006223       0.11756040
Si       2.32236504       4.05828401       0.08288357       0.04013959       0.00044685       0.01382736
Si       3.45982246       4.87928269       7.16203062      -0.01904275      -0.02181488      -0.01029921
Si       6.43123235       5.73207106      10.69906500       0.11306202      -0.14545309       0.03154351
Si       7.19650002       5.21369612       8.22335077      -0.83117356      10.80425480       4.61767157
Si       9.77319828       4.69107998       8.46820810       0.91173736       0.21470901       0.55368645
Si       9.11638630       6.04323926      10.47801615      -0.03394123      -0.00241667       0.08913692
Si       2.48011030       9.24251684       9.57000530      -0.00894413      -0.02698855      -0.01571667
Si       4.85390457       8.86180636       8.77752248      -0.01031982      -0.00889197       0.00317579
Si      10.68339161       8.42224549       8.94972859       0.03831260      -0.01610263      -0.00288975
Si      10.17497825       9.61251797      10.94047566       0.02057574       0.03579033      -0.03504883
Si       7.76488385      10.93388896       9.36189147      -0.00120228      -0.00421057      -0.00940904
Si       8.57589069       9.05262681       7.60126751      -0.01092642       0.01101384      -0.01438514
Sb      -3.72423763       3.34333527      -3.57214991      -1.26020612      -7.45808446      -4.27618552
65
Lattice="10.9005363771 0.0 0.0 0.0 10.9681872854 0.0 0.0 0.0 10.9249688975" Properties=species:S:1:pos:R:3:force:R:3 config_type=Sb_disordered virial="37.02803774651747 -2.4538704718892563 12.053045760533701 -2.4538704718892563 45.9792029469292 1.7824055065440345 12.053045760533701 1.7824055065440345 27.590239566543737" energy=7.032045410000023 pbc="T T T"
Si       3.34160386       1.86229306       3.72787229      -0.01426216      -0.00124893       0.01325207
Si       1.25598877       2.44020683       1.16869026       0.02784017       0.00776011       0.01429726
Si       3.83131946       1.29366781       1.31609727      -0.00343858      -0.01367252       0.01924534
Si       5.57503989       3.70948606       1.20032558       0.02177472      -0.02742495       0.04187948
Si       6.02883853       2.14659792       3.08736308      -0.02381202      -0.01397911       0.00897570
Si       8.35698596       3.10456927       2.03604673      -0.08683065       0.03354705       0.02930480
Si       9.75119156       0.93252801       1.15136742       0.06791304      -0.09759739       0.00694498
Si       1.97545085       5.63876899       1.34171913       0.01289646      -0.05504483       0.01431569
Si       5.69438889       6.25403560       2.03549994      -0.13620427      -0.11938052       0.28514576
Si       4.10796534       6.46997151       0.18003314      -0.06967126       0.00496332      -0.01892075
Si       8.18028027       6.57761174       2.16905010       0.47310154      -1.41443724       1.29507208
Si       8.93281316       4.13844097      10.80268410       0.04697724      -0.12671869      -0.04771946
Si       9.39228159       5.05254511       3.44850906       0.12349067      -0.07790895       0.21716437
Si       1.95026843       9.71628718       1.71256146      -0.10205060       0.05303562       0.02733261
Si       0.97698785       7.82110290       0.62634847       0.23451315      -0.06549138      -0.11751128
Si       5.67359214      10.38902257       2.03777621      -0.30679651       0.40246364       0.09663325
Si       4.08242761       8.96902264       0.82767630      -0.11053319      -0.04364705      -0.06955820
Si       8.54022128       9.25304696       2.92406734       0.74235024       0.44508146       1.05455733
Si       7.63905122      10.35842985       0.49450592       0.63613909      15.09281302       1.27327088
Si       9.47943288       8.30598420       0.60218796      14.79343831      -0.43826121       1.91696397
Si       1.00262040       2.58042546       3.76428584       0.01172408       0.03556670       0.01841730
Si       0.19641120       0.50027541       5.62245738      -0.02825302      -0.03915286       0.05973837
Si       9.45384812       1.21543540       3.92297750       0.02411193      -0.07659561      -0.03566389
Si       7.24420974       0.96716998       6.53791753       0.02021432       0.06207135      -0.06226256
Si       8.16063191       3.17801968       5.09195934      -0.00193863      -0.02283232       0.03081660
Si       7.27438126       0.20054121       4.26736312       0.00493044      -0.03777189       0.04165811
Si       2.37180556       6.23479656       3.85437470      -0.01741035       0.02109727       0.01904968
Si       1.26805014       4.46620588       5.25823902      -0.04626057      -0.05286417      -0.05955345
Si       3.38853958       3.64414430       6.23443358      -0.01587639       0.01386736       0.01804511
Si       4.59995927       6.03247544       4.40706234      -0.05735282      -0.02894901       0.09749576
Si       5.42473731       3.82900314       4.83123405       0.03715801      -0.02697878      -0.00769619
Si       6.97371439       4.94636421       6.88717908       0.04449479      -0.00640542       0.00619404
Si       5.72807076       7.08270461       6.83241984      -0.06507611      -0.17362646      -0.08933307
Si      10.56147543       6.61272017       5.04354116       0.01246962      -0.02354175       0.01638035
Si      10.04066032       3.92886364       6.53456188       0.01497196       0.00420424       0.00725501
Si       9.12603662       6.14310699       6.95769567       0.01284393      -0.00569450      -0.00564227
Si       2.53167422      -0.01364066       5.04444994       0.01094722       0.03215145       0.03183216
Si       1.51184517       8.68927531       4.01921818      -0.01185528      -0.00732385       0.03691879
Si       3.81745099       8.54256264       5.64038590      -0.08490686       0.05619880      -0.07069070
Si       6.23084579       8.41749248       4.01137767       0.04730863       0.05688280       0.01183996
Si      10.00826197       9.20731803       4.91236341      -0.05032518       0.11066574       0.07001914
Si       7.84103983       8.05825879       5.98402381      -0.00431663      -0.04088461      -0.02192057
Si       3.05807164       1.43032993       7.37566561      -0.04952788      -0.00699596       0.01607657
Si       1.13597400       0.21061758       0.04451351       0.07708167      -0.01488738      -0.02347718
Si       0.89967059       0.40670052       8.06223541       0.02958503       0.07433974      -0.03697843
Si       4.41192127       1.36724899       9.44156556       0.00578046       0.00566024      -0.06465153
Si       5.74193178       2.58135634       7.53702217      -0.00016971      -0.02358332       0.06304358
Si      10.81008664       2.79699407       8.59139256      -0.03811024      -0.02486643       0.04525980
Si       8.36447213       1.70578067       9.99018534       0.07142536       0.11824508      -0.17152052
Si       9.11882321       0.71531082       7.88039543       0.01152812       0.07897290       0.00423739
Si       3.46578100       3.90556238      10.77557911       0.02585660       0.01768118       0.00072600
Si       0.40599745       4.26056249      10.83168641      -0.03806844       0.01590081      -0.01293279
Si       1.25864380       5.94306656       7.85128467       0.00758552      -0.00190307       0.02403391
Si       2.20733537       3.80826536       8.52325747      -0.02596879      -0.01491974      -0.01779481
Si       5.89177628       6.50768473       9.42757826      -0.36109706      -0.59215410      -0.65958439
Si       6.46716898       3.89127696       9.59543450      -0.03652393       0.06602426      -0.04917346
Si       8.11712041       6.35582173      10.41163715       1.13335443      -4.88126568      -2.19680121
Si      10.23475516       6.75230568       8.93022781      -0.08943658       0.13060249      -0.01873877
Si      10.76673891       9.28376528       9.08512391      -0.08674001      -0.08351740       0.02998879
Si       2.88168647       9.50558638       7.88859671       0.09960065      -0.04013034      -0.02159835
Si       2.25236639       7.69085763       9.45797268       0.00045556       0.01900309      -0.05535514
Si       6.75393278       8.78690989       9.40418708      -3.71961732       1.57188992      -9.38358624
Si       4.50946289       9.79900721       9.50391636      -0.01129045       0.00668493       0.10683906
Si       8.54048198       9.48635861       8.01264161       0.13703426       0.02797987       0.02491819
Sb       7.47420697      -2.60683446       0.42200949     -13.32717575      -9.84369705       6.22352597
65
Lattice="11.0069419801 0.0 0.0 0.0 10.8920658576 0.0 0.0 0.0 10.930347638" Properties=species:S:1:pos:R:3:force:R:3 config_type=Sb_disordered virial="14.26480749374796 -5.591636652330039 -7.801195164831453 -5.591636652330039 6.66743408789047 3.150556639783842 -7.801195164831453 3.150556639783842 17.37250779487188" energy=-1.371656709999968 pbc="T T T"
Si       1.93487617       1.29571341       1.66550705       0.27811653      -0.13753827      -0.26126288
Si       5.07093896       0.92886046       1.03933686      -0.08477161      -0.00021417       0.03450648
Si      10.69866734       2.14539516       2.19097684       1.52893759      -0.91134473       1.20092685
Si       7.45983750       0.40873616       2.04640992      -0.08576865      -0.00974237      -0.03983869
Si       0.25004095       5.57020693       0.23166662       0.06492437       0.06069971      -0.03879776
Si       0.58034377       4.27179180       2.69461747       0.12626585       0.07691092       0.03069908
Si       3.30564423       5.30970521       3.07002933       0.03458901       0.00865714       0.01540887
Si       2.72432353       5.35006478       0.59631410       0.01859764      -0.02873752      -0.03366970