15
Lattice="7.6136135381 -0.1386369416 -0.1040250732 3.7529239589 6.5730637791 -0.1805700688 3.7405545585 2.1124023372 6.2332427187" Properties=species:S:1:pos:R:3:force:R:3 config_type=Sb_vac_migration virial="4.312448639390732 -2.772711189589959 -1.231253621319718 -2.772711189589959 5.154113887353807 0.35007075120581543 -1.231253621319718 0.35007075120581543 10.130336461884541" energy=-5.496146570000008 pbc="T T T"
Si       1.51655044       1.10702677       3.01035803      -0.29064486      -0.14823620      -0.26111739
Si       3.47065513       1.86873489       3.82963732      -0.19320190      -0.19713458      -2.72818822
Si       1.64274724       3.23635356      -0.19128656      -0.27058956      -0.16191976      -0.05833650
Si       3.61769118       4.21798309       0.53092746       0.34471958      -0.89848243       0.57172810
Si       3.72162238       4.12005324       3.13262069      -0.09952293       0.30726868      -0.52812863
Si       5.42180697       5.36859947       3.50433702       0.07309508       0.03300202       0.07613314
Si       3.63212588      -0.25692193      -0.14627565      -0.43896260      -0.23142997       0.05572692
Si       5.47585884       0.78006152       0.56114527      -1.32149344       0.68035277       0.49881158
Si       5.60111211       0.92058437       3.02005340       0.01324921       0.01074343       0.03989012
Si       7.39825962       2.08503957       3.66629088       0.16097694       0.04321793       0.04860341
Si       5.94269668       3.04165737      -0.08526150      -0.40680254       0.37875991      -0.02040808
Si       7.58058982       4.33281220       0.52160315       0.05224620       0.11770377       0.01511793
Si       7.48225600       4.20676699       2.87284336       0.00295157       0.00812251      -0.03708791
Si       9.28597912       5.04938459       3.58564703       0.05753974      -0.12079701       0.08874188
Sb       0.03253844       0.06784921      -0.07304621       2.31643951       0.17882892       2.23851364
15
Lattice="7.5083460099 -0.1391271201 -0.1027058872 3.7863280161 6.5655552411 -0.178326225 3.7624899585 2.1344870799 6.1554067099" Properties=species:S:1:pos:R:3:force:R:3 config_type=Sb_vac_migration virial="-1.759474407523463 -2.214404411457762 -2.2272775256447055 -2.214404411457762 1.552641272833144 -1.61734668459113 -2.2272775256447055 -1.61734668459113 3.6089618610630727" energy=-6.1059283900000025 pbc="T T T"
Si       1.45823816       0.92205414       2.98979085      -0.16770360      -0.20187557      -0.41364847
Si       3.68763435       1.82420252       3.61314085       0.29106779       0.35197407       0.14659634
Si       1.83884037       3.31437380      -0.34938991      -0.45718119      -0.35808678      -0.16116893
Si       3.73066153       4.12084951       0.42138226       0.30895569       0.40751527       0.29147342
Si       3.65442989       4.22414393       2.93152673       0.00541756      -0.08299363      -0.09274883
Si       5.23828473       5.26264596       3.44350835       0.01580039      -0.04916209       0.15286029
Si       3.59938844      -0.14851928      -0.38807612      -0.63151689      -0.19597244      -0.05429182
Si       5.22037632       0.85707698       0.40337195       0.76049811       0.00010752       0.01541928
Si       5.78002144       1.06396079       2.82654249      -0.15302274       0.10105295       0.11970273
Si       7.30458036       1.79520491       3.37911757      -0.10399527       0.04561326       0.14139180
Si       5.74371734       3.07056745      -0.04837661      -0.11364742      -0.00193549       0.04699793
Si       7.38828259       4.26538743       0.29103962       0.07174372      -0.00763146       0.02978193
Si       7.41047337       4.28642674       2.74696163      -0.03007557       0.00535124      -0.01030723
Si       9.40524098       5.13393108       3.62719870       0.05521618       0.01991913      -0.03449268
Sb       0.45390622       0.21445147       0.12846072       0.14844321      -0.03387600      -0.17756574
15
Lattice="7.5353879608 -0.1399782268 -0.102728088 3.7645807226 6.5387277531 -0.1804049771 3.7234822681 2.1010234057 6.1959343542" Properties=species:S:1:pos:R:3:force:R:3 config_type=Sb_vac_migration virial="-2.488659709045905 -3.0509362398854787 -2.138850805141578 -3.0509362398854787 1.9553324291809897 -0.4488787373970977 -2.138850805141578 -0.4488787373970977 4.792885337182702" energy=-6.201089490000001 pbc="T T T"
Si       1.72403786       0.90389346       2.95423807      -0.30218155      -0.25093662      -0.02855219
Si       3.49269339       1.94408630       3.79633939       0.43836553       0.27454475      -0.27229454
Si       1.75344709       3.18179463       0.00798903      -0.49635073      -0.24101505      -0.23335333
Si       3.62212335       4.12329953       0.58943862       0.34709541       0.47018610       0.13269465
Si       3.67411419       4.15879805       2.99551279      -0.09028081      -0.09099007      -0.02319145
Si       5.43762375       5.40014008       3.46106953       0.04471219       0.01523012       0.17022515
Si       3.54660081      -0.26245162      -0.19761635      -0.44014617      -0.21061375      -0.24682891
Si       5.32575368       0.97192393       0.58936211       0.56915509      -0.06234517       0.06524827
Si       5.68955722       0.91723506       2.87953772      -0.22631154       0.08915449       0.16813568
Si       7.31817002       1.96362775       3.41082965      -0.04160098       0.03555013       0.17004183
Si       5.65741353       3.18436903       0.10312757      -0.19030939       0.02000451      -0.00912989
Si       7.49760523       4.06766851       0.49740678       0.06710382       0.09297362       0.09470472
Si       7.46699391       4.30822059       2.99523358      -0.01033973      -0.00438798      -0.08242349
Si       9.17858309       5.25305156       3.71909520       0.06025268       0.00521118       0.00800415
Sb       0.47111052       0.27492663       0.16355947       0.27083618      -0.14256627       0.08671934
15
Lattice="7.5944799862 -0.1383928257 -0.1022498316 3.7929499254 6.6373310881 -0.1784243542 3.7477721292 2.1289952832 6.224820471" Properties=species:S:1:pos:R:3:force:R:3 config_type=Sb_vac_migration virial="-1.054037227423489 -2.643377695362523 -1.0598293704621176 -2.643377695362523 1.6539123599031575 -0.6731686100904595 -1.0598293704621176 -0.6731686100904595 6.955327375914122" energy=-6.021794200000002 pbc="T T T"
Si       1.64782756       0.90116532       2.81666633      -0.25402181      -0.41213049       0.13441558
Si       3.56372507       1.98072554       4.02596027       0.40126267       0.29953816      -1.40991337
Si       1.65693840       3.20545850      -0.01102249      -0.34981081      -0.10421883      -0.39959846
Si       3.66166922       4.21149275       0.45640301       0.36060985       0.18548724       0.40814284
Si       3.76867087       4.17740361       3.02714206      -0.00807381      -0.01103620      -0.11307925
Si       5.52130615       5.30430461       3.30131852       0.01326506      -0.11809292       0.36569748
Si       3.82403994      -0.08849158      -0.26422108      -0.57974332      -0.19882947      -0.17597686
Si       5.49077712       0.89354962       0.52163399       0.36571914       0.20991289       0.36351904
Si       5.72527318       0.95301764       2.96914752      -0.28344913       0.08517827       0.09248819
Si       7.54336738       1.97714736       3.62755028       0.02927773       0.03963038       0.16344127
Si       5.74971146       3.17664287      -0.29987245      -0.23916738       0.06859894       0.04376186
Si       7.48142505       4.47916369       0.34770905       0.15337150      -0.05982840       0.04389588
Si       7.55258876       4.40946141       2.88414249      -0.04269863       0.06830336      -0.05008036
Si       9.25210647       5.36723438       3.66901501       0.07426749      -0.07663304      -0.00756085
Sb       0.52730759       0.30723779       0.21968310       0.35919147       0.02412011       0.54084700
15
Lattice="7.5462341095 -0.1398623868 -0.1030964797 3.7494768863 6.5844647186 -0.18044236 3.7584641364 2.1115027201 6.1695621604" Properties=species:S:1:pos:R:3:force:R:3 config_type=Sb_vac_migration virial="-2.4746105971123935 -2.4021553881669186 -1.943240983077132 -2.4021553881669186 2.3133726830659107 -0.5906174955673473 -1.943240983077132 -0.5906174955673473 4.496842187661288" energy=-6.252921979999996 pbc="T T T"
Si       1.71071286       0.95913552       2.92235034      -0.50692698      -0.18987522      -0.02957873
Si       3.71040529       1.82614477       3.85600035       0.36683300       0.15274710      -0.08862017
Si       1.76605470       3.18995970      -0.26358003      -0.42877668      -0.32169570      -0.21878990
Si       3.59191897       4.16432478       0.52751510       0.44042048      -0.13906296       0.52638814
Si       3.74595505       3.94470337       2.97459457      -0.13897630       0.11155292      -0.27179456
Si       5.51268602       5.36457282       3.62403424       0.11675439       0.01911677       0.25163959
Si       3.58109531      -0.34380086      -0.17329262      -0.51135881      -0.28602646      -0.18247367
Si       5.32138803       0.90432003       0.50909498       0.62429081      -0.02418262       0.24076170
Si       5.60948659       0.98245322       3.07689296       0.01546287      -0.06949702      -0.13379803
Si       7.50124728       1.95290648       3.38082257      -0.06607858       0.06921122       0.30461847
Si       5.60373186       2.85885993      -0.01326713      -0.21127582       0.24873979      -0.16985129
Si       7.51532671       4.23172708       0.50709338       0.06944623       0.04768424       0.06571730
Si       7.49341632       4.35760494       2.92631161       0.01707065       0.02698114      -0.10301273
Si       9.48940799       5.33473204       3.47403384       0.00286297      -0.02926153       0.23831366
Sb       0.62847034       0.15204434       0.37623918       0.21025177       0.38356830      -0.42951978
15
Lattice="7.5973652815 -0.1386453516 -0.1025618237 3.7816603849 6.5640943866 -0.1789998454 3.752233949 2.1003979379 6.2222410909" Properties=species:S:1:pos:R:3:force:R:3 config_type=Sb_vac_migration virial="-1.0035794662981345 -3.9544152915759305 -1.797687881669514 -3.9544152915759305 1.6146199578033453 -1.0925087613819402 -1.797687881669514 -1.0925087613819402 3.698719177342773" energy=-6.252963640000004 pbc="T T T"
Si       1.90843333       0.81427588       2.97301662      -0.36592145      -0.21964638       0.00873425
Si       3.62892410       1.73692272       3.92817184       0.34396522       0.41957983      -0.26808096
Si       1.78473181       3.22207779      -0.21249208      -0.51005374      -0.25574085      -0.23231607
Si       3.72342418       4.28291439       0.61722646       0.43711966       0.12935808       0.38514542
Si       3.51603300       4.20938791       3.05173537      -0.05626900      -0.12850270      -0.18175911
Si       5.50346151       5.41754251       3.73753598       0.12685055       0.05427073       0.02845800
Si       3.67815105      -0.17148841      -0.13257449      -0.34687420      -0.18671012      -0.11920444
Si       5.48087719       0.81176300       0.70371693       0.26909363       0.29738652       0.14594843
Si       5.75606600       0.90150135       3.02776935      -0.12616158       0.09149357       0.12862676
Si       7.15819612       1.97787776       3.73851607       0.02748138      -0.01384106      -0.03705271
Si       5.66327215       3.01278734      -0.02445271      -0.33666249       0.15348469      -0.01028347
Si       7.47123915       4.27959860       0.29980453       0.11717278       0.11619841       0.05636590
Si       7.66022382       4.27116111       2.97527224      -0.05097783       0.00227647      -0.05688499
Si       9.26918433       4.93531525       3.52662302       0.03818689      -0.00987508       0.06569138
Sb       0.51007644       0.45454930       0.24649108       0.43305020      -0.44973212       0.08661162
15
Lattice="7.6186283303 -0.138107094 -0.102607892 3.7668206821 6.559539671 -0.1796341451 3.7618346201 2.1358533757 6.2074208902" Properties=species:S:1:pos:R:3:force:R:3 config_type=Sb_vac_migration virial="-3.0690495960669963 -3.099019080441388 -1.4503714529329814 -3.099019080441388 2.6289762578703257 -1.166997018805088 -1.4503714529329814 -1.166997018805088 2.7798590013702333" energy=-6.154637210000004 pbc="T T T"
Si       1.74825875       1.01855354       3.09102667      -0.49763098      -0.36954265      -0.33837561
Si       3.39743067       1.91978995       3.79451675       0.50537402       0.31151097       0.26158472
Si       1.69386148       3.20153750      -0.20183194      -0.42586557      -0.24239792      -0.22036260
Si       3.78213449       4.23056536       0.50561164       0.26326609      -0.20432928       0.31379686
Si       3.53415490       4.08849923       3.10048363       0.00307196       0.07712831      -0.25384269
Si       5.50416621       5.21025532       3.45603761       0.07707884       0.00954265       0.26053054
Si       3.63762489      -0.30743955      -0.24001747      -0.56522004      -0.08822707      -0.06470468
Si       5.35792061       0.74553577       0.71137812       0.69911334       0.21788630       0.18404724
Si       5.45410852       0.86258117       3.16736206      -0.05420019      -0.04767930      -0.22828161
Si       7.42891419       2.02442124       3.62864785       0.08548314       0.03657965       0.04919445
Si       5.70754597       3.07865645      -0.10940187      -0.14298789      -0.05724039       0.01048185
Si       7.32804277       4.20241593       0.31180657       0.19655247      -0.11922130       0.03884393
Si       7.54008231       4.05065874       2.88525234      -0.02798208       0.01342565      -0.04313657
Si       9.54320642       5.08657844       3.61668993      -0.00304746      -0.00677737       0.05301015
Sb       0.64958580       0.26573401       0.26603276      -0.11300567       0.46934177      -0.02278598
15
Lattice="7.5238814222 -0.1387007296 -0.102475603 3.7470758853 6.5175154403 -0.1780320011 3.6970509366 2.1063624226 6.1416406962" Properties=species:S:1:pos:R:3:force:R:3 config_type=Sb_vac_migration virial="-2.491443900888086 -2.802049057110505 -2.480099850570804 -2.802049057110505 0.938919393810802 -1.243751664224991 -2.480099850570804 -1.243751664224991 4.518700835968321" energy=-6.061671450000006 pbc="T T T"
Si       1.49824389       0.93711205       2.96890777      -0.21527445      -0.36405854      -0.22560884
Si       3.48075238       1.98019720       3.80168354       0.39219927       0.25185237      -0.43792910
Si       1.67749923       3.23861802      -0.05161897      -0.55618458      -0.34803835      -0.22284575
Si       3.41980902       4.02932657       0.34207728       0.55896881       0.45437222       0.18503273
Si       3.65357195       4.23753556       2.77426094      -0.03962982      -0.06003040       0.07120416
Si       5.34567032       5.17815521       3.42491411       0.04565397       0.01250410       0.08466533
Si       3.76024396      -0.26394512      -0.40540846      -0.65849353      -0.05656156       0.02262855
Si       5.35617997       0.76335420       0.57370026       0.62967549       0.14213552       0.22539049
Si       5.60550664       0.95827082       2.89539632      -0.25001577      -0.02909877       0.05429345
Si       7.34304363       1.90720028       3.55436140       0.08775593       0.04197124       0.16111130
Si       5.70505204       3.16762885      -0.10582208      -0.17147201      -0.01209326      -0.02565214
Si       7.70737000       4.28226682       0.64723050       0.04417796       0.04154284       0.09225207
Si       7.51963640       4.29526202       2.84091540       0.00565142      -0.01667598      -0.01338568
Si       9.23484571       4.93877502       3.42434603       0.03573365       0.06005361      -0.00485615
Sb       0.59337600       0.37379435       0.21551516       0.09125366      -0.11787505       0.03369959
15
Lattice="7.5202798251 -0.1386562917 -0.1035638384 3.7838075258 6.5100535606 -0.1802245273 3.7111551554 2.095133986 6.2180523117" Properties=species:S:1:pos:R:3:force:R:3 config_type=Sb_vac_migration virial="-2.562364851881174 -2.4083205739211184 -1.7913152294165506 -2.4083205739211184 -0.20429368252383284 -0.12492400069280674 -1.7913152294165506 -0.12492400069280674 4.87171308625647" energy=-5.983666659999997 pbc="T T T"
Si       1.59609140       0.91396938       2.84905223      -0.31008242      -0.14447744      -0.13103379
Si       3.55421312       1.94808670       3.89747605       0.26773706       0.05893021      -0.41921503
Si       1.81688780       3.36292901      -0.28822174      -0.65587748      -0.63372304      -0.22135344
Si       3.50084386       3.92912433       0.62060049       0.53520506       0.67955300       0.07281799
Si       3.64233130       4.19997094       2.87207554      -0.08789126      -0.06308859      -0.03902653
Si       5.30989206       5.31622313       3.58144118       0.08830642       0.06190411       0.11312743
Si       3.63557036      -0.30769902      -0.25169231      -0.56052590      -0.09216108      -0.24617812
Si       5.23862844       0.64736633       0.66432956       0.68649154       0.04916963       0.14118101
Si       5.59242218       0.80503762       3.03763244      -0.11399194       0.05635423       0.02253194
Si       7.34535040       1.76049030       3.43757390      -0.05900998       0.09481714       0.29569083
Si       5.73236453       3.01907700      -0.06362277      -0.15187961       0.06763139      -0.03443905
Si       7.76213782       4.37939364       0.46752161      -0.00152760       0.03782226       0.10192752
Si       7.43092047       4.15144010       2.88678668       0.00202895      -0.01307507      -0.08167759
Si       9.22854449       5.02498174       3.43311266       0.03555203       0.01558830       0.12013057
Sb       0.58137999       0.43609485       0.18562635       0.32546514      -0.17524506       0.30551626
15
Lattice="7.5415878928 -0.1403988256 -0.1023768114 3.7759415597 6.573709997 -0.1794155023 3.6921375428 2.1315143638 6.1938570262" Properties=species:S:1:pos:R:3:force:R:3 config_type=Sb_vac_migration virial="-2.118618884697952 -3.0394001441768452 -2.172917412440068 -3.0394001441768452 2.073752969044545 -0.9489682344203647 -2.172917412440068 -0.9489682344203647 5.414616605494144" energy=-6.141905300000005 pbc="T T T"
Si       1.58770752       0.90293338       2.87771353      -0.32158584      -0.21198711       0.52221300
Si       3.36502982       1.89951709       3.76924917       0.46066076       0.33747863      -0.07024656
Si       1.64298011       3.08130818      -0.13455701      -0.31874702      -0.15093416      -0.30951616
Si       3.60820398       4.22511819       0.39233527       0.51387626       0.01169268       0.38024629
Si       3.61074641       4.26275176       3.12767811      -0.08403440      -0.06247589      -0.11376155
Si       5.30657350       5.32985345       3.62996069      -0.02264997      -0.02350692       0.15404612
Si       3.71749138      -0.11003161       0.03269827      -0.44634689      -0.52550580      -0.53089243
Si       5.53515195       1.00350235       0.72726247       0.47527932       0.01549421       0.09364111
Si       5.62001203       1.02161782       2.81561609      -0.11205465       0.15833934       0.20013011
Si       7.18909276       2.00501434       3.41155651      -0.09866905       0.10030406       0.38919143
Si       5.71927384       3.09226829      -0.37295395      -0.26398171       0.06515793      -0.02972593
Si       7.73851209       4.15147443       0.31316936      -0.05450151       0.32448851       0.15704088
Si       7.45584472       4.19733726       2.88228870       0.04642312      -0.05366533      -0.09749040
Si       9.11851042       5.21010557       3.55671842       0.08096874      -0.05076096       0.02643512
Sb       0.78684606       0.32528681       0.39973465       0.14536284       0.06588082      -0.77131104
15
Lattice="7.5016557587 -0.1401221721 -0.1039996201 3.7376171721 6.6246541804 -0.1800857429 3.6988074339 2.1049255283 6.2100101909" Properties=species:S:1:pos:R:3:force:R:3 config_type=Sb_vac_migration virial="-2.6308640056935957 -3.186390364730105 -1.6658746572351397 -3.186390364730105 2.1377119606151087 -1.1497147153783107 -1.6658746572351397 -1.1497147153783107 4.456363503007608" energy=-6.181844869999992 pbc="T T T"
Si       1.50925789       0.84250386       2.95516019      -0.23697274      -0.17205500      -0.11032386
Si       3.44522249       1.93352589       3.88701974       0.49207055       0.40475390      -0.65246291
Si       1.81627036       3.29153683      -0.17962326      -0.58308987      -0.31528487      -0.24810045
Si       3.61662117       4.29583209       0.50613876       0.43111515       0.17074204       0.28000101
Si       3.75847231       4.36001434       2.92448389      -0.06807801      -0.18176025       0.14060401
Si       5.45103402       5.31299700       3.45384253       0.06644612      -0.11597833       0.20225758
Si       3.63900329      -0.13307785      -0.20696719      -0.53815915      -0.35762231      -0.26665072
Si       5.32524563       0.78542632       0.68821956       0.54498795       0.22501725       0.05115054
Si       5.64228922       1.06985213       2.88503824      -0.20133834      -0.02600292       0.24746876
Si       7.39624243       1.75661159       3.51170697      -0.13395395       0.13198906       0.25431550
Si       5.68022403       3.07628061      -0.13229185      -0.12248312       0.00830363       0.00679984
Si       7.34173310       4.31445267       0.36050068       0.14121483       0.01516567       0.05541609
Si       7.24009765       4.29442585       3.01704691      -0.02052788       0.03977363      -0.07153798
Si       9.12232416       5.02788316       3.66103579       0.06197051       0.08392634      -0.04183450
Sb       0.64531564       0.33050845       0.18281560       0.16679797       0.08903214       0.15289710
15
Lattice="7.6007665502 -0.138574335 -0.10216725 3.7849978961 6.542746406 -0.1797490055 3.736132802 2.1072875628 6.1492438459" Properties=species:S:1:pos:R:3:force:R:3 config_type=Sb_vac_migration virial="5.6123325432097575 -2.509940172652871 -1.8861488616524025 -2.509940172652871 7.104881168112069 -0.19349950998231513 -1.8861488616524025 -0.19349950998231513 5.372752770158437" energy=-5.698528600000003 pbc="T T T"
Si       1.55267297       0.83463368       3.03034761      -0.37087492      -0.25575790      -0.27015680
Si       3.56853717       1.92372676       3.70935862       0.22311857       0.14245924      -1.46760648
Si       1.88295661       3.14622694      -0.15080651      -0.39798956      -0.39340766      -0.15741157
Si       3.69395417       4.14219806       0.52143528       0.13859584      -1.29382439       0.40463543
Si       3.60582516       4.06452531       2.74475763      -0.17273760       0.00183743       0.35061969
Si       5.48781787       5.39373265       3.40315424       0.12391672       0.03206130       0.11429138
Si       3.64354637      -0.28196278      -0.31379288      -0.34872838      -0.07488954      -0.12160031
Si       5.54928629       0.81838375       0.61230986      -1.60370217       0.76205571       0.31310539
Si       5.54591158       0.90720983       2.65331639      -0.29806961       0.01642884       0.65244736
Si       7.41445753       1.94743948       3.72676032       0.08667184       0.04356116       0.15967895
Si       5.85174657       3.06114034      -0.06012060      -0.11454594       0.18138604      -0.06038447
Si       7.54994173       4.49871852       0.39717405       0.12600478       0.09781618       0.03398639
Si       7.34058432       4.15593011       2.76213524       0.03092897       0.01956908       0.00250022
Si       9.35868527       5.19452335       3.70013047       0.03021202      -0.04350000      -0.15676673
Sb       0.06513641      -0.01704503       0.06028560       2.54719946       0.76420449       0.20266156
15
Lattice="7.515169781 -0.1378618185 -0.1033755397 3.7628688327 6.5285288679 -0.1794738641 3.7347496234 2.1258776898 6.2359197475" Properties=species:S:1:pos:R:3:force:R:3 config_type=Sb_vac_migration virial="-0.4171964102346095 -3.5890346765254924 -0.8695482309824456 -3.5890346765254924 2.55242744617051 -0.05533610443738013 -0.8695482309824456 -0.05533610443738013 5.478626096537771" energy=-6.148553629999995 pbc="T T T"
Si       1.68631605       1.06431394       2.97447464      -0.25864188      -0.24479405       0.59260678
Si       3.31433789       1.88986134       3.81956208       0.37744230       0.26757993       0.10752582
Si       1.57166723       3.26551810      -0.13907079      -0.23063919      -0.44998212      -0.18542085
Si       3.54053665       4.31743548       0.44839967       0.62427245      -0.10099516       0.20254751
Si       3.55313838       4.17477049       3.08460590      -0.07061819      -0.07432437      -0.07548059
Si       5.43352465       5.29721274       3.57893119       0.03049096       0.09584151       0.13588566
Si       3.49045804      -0.07884501      -0.23645676      -0.14358176      -0.52102684      -0.25248076
Si       5.59794154       0.82068890       0.78328797       0.08799127       0.38947467       0.21474722
Si       5.48457744       0.84291634       2.96110286      -0.08071580       0.04203894       0.09394454
Si       7.07351763       1.85343415       3.68874949       0.06876813       0.13392460       0.11994375
Si       5.73464297       3.10621670      -0.09450438      -0.28113619       0.15587444      -0.04189350
Si       7.68424811       4.09653098       0.34822083      -0.23962666       0.53480637       0.04373311
Si       7.42470394       4.17444844       2.76524956      -0.01735502      -0.06417618       0.02293282
Si       9.19585123       5.16984607       3.79886530       0.06693708      -0.03026812       0.02703383
Sb       0.89580605       0.55039981       0.56437434       0.06641248      -0.13397361      -1.00562533
15
Lattice="7.5914098121 -0.1402094527 -0.1026946543 3.7893660825 6.5118970779 -0.1794592699 3.7225861401 2.1269169359 6.1988004533" Properties=species:S:1:pos:R:3:force:R:3 config_type=Sb_vac_migration virial="-3.0588612168255302 -3.7225164803628292 -2.431359855655878 -3.7225164803628292 1.4842017141872823 -1.419404725373588 -2.431359855655878 -1.419404725373588 3.792930639130176" energy=-6.331317439999992 pbc="T T T"
Si       1.73956178       0.85610621       2.96831263      -0.42178250      -0.31250584      -0.06319028
Si       3.50680819       2.02043519       3.81403993       0.39656030       0.33916933       0.00233842
Si       1.67698719       3.27429007      -0.05006742      -0.32897693      -0.48344714      -0.15097705
Si       3.71841389       4.10453505       0.45728400       0.52841182       0.27429809       0.22427177
Si       3.77447673       4.12565860       3.08857793      -0.08599720      -0.01236467      -0.17021167
Si       5.40226638       5.33162942       3.73327689       0.07014626       0.13996862      -0.03263780
Si       3.76590058      -0.17984535      -0.20199251      -0.62210593      -0.11961937      -0.25134142
Si       5.52468483       0.81043521       0.76944298       0.51159716       0.07506305       0.11451382
Si       5.54932884       1.11420489       2.90467998      -0.00134418      -0.01312522      -0.01598368
Si       7.22895436       1.97462457       3.54590979       0.17434286      -0.00510453       0.08321615
Si       5.79665588       3.01227252      -0.12505212      -0.23729017       0.03461945      -0.03057369
Si       7.64585562       4.16776827       0.43543287       0.07689251       0.13448702      -0.01493435
Si       7.63342088       4.26116111       2.94885730      -0.05228267      -0.03517753       0.01006016
Si       9.40049784       5.10548416       3.72764444       0.05305190       0.02116651       0.01712017
Sb       0.93061067       0.40767153       0.26908479      -0.06122322      -0.03742775       0.27832945
15
Lattice="7.5975312172 -0.1382179899 -0.1032262243 3.7818487998 6.602244996 -0.1784129586 3.7130638835 2.1208235152 6.2563140475" Properties=species:S:1:pos:R:3:force:R:3 config_type=Sb_vac_migration virial="-0.48522769101369967 -3.4500174598046476 -2.3113998656085863 -3.4500174598046476 0.31203704370351204 -1.149050250417409 -2.3113998656085863 -1.149050250417409 3.688499776709441" energy=-6.061765059999999 pbc="T T T"
Si       1.77753911       0.94121198       3.11079631      -0.32917380      -0.09516713      -0.23348441
Si       3.54965681       1.82963989       4.00705085       0.47694787       0.30959185      -0.22457563
Si       1.84082177       3.28510130      -0.22774135      -0.61825402      -0.33545016      -0.31859045
Si       3.59915375       4.26239406       0.46332102       0.48180809       0.20232425       0.34251692
Si       3.60364545       4.19643345       3.03591101      -0.02049163       0.00335583       0.00890302
Si       5.37753266       5.39431758       3.31916724       0.04596452      -0.18877189       0.48946633
Si       3.54153734      -0.17232311      -0.06519673       0.03822958      -0.37044733      -0.40202371
Si       5.50105530       0.75602714       0.56589907       0.40367959       0.38735361       0.31140763
Si       5.62643958       1.04504568       2.85042173      -0.12998497      -0.07454321       0.05380473
Si       7.36836539       1.97971278       3.65242384      -0.02190315       0.02460089       0.13276009
Si       5.55313134       3.14399893       0.02745505      -0.06651874      -0.14720406      -0.13257206
Si       7.57127355       4.46510049       0.41397774       0.21817883      -0.24900076       0.12643364
Si       7.54332988       4.11314629       2.93884546      -0.01698558       0.07715428      -0.08280111
Si       9.35179067       5.18781390       3.67338052       0.03472658       0.05161030       0.06902626
Sb       0.97464702       0.46394242       0.37490087      -0.49622315       0.40459353      -0.14027125
15