17
Lattice="7.7435099263 0.0 0.0 3.8781589044 6.6915809802 0.0 3.8551684122 2.2397387631 6.3562095654" Properties=species:S:1:pos:R:3:force:R:3 config_type=Sb_int virial="15.343609114714878 -8.902521450218936 -5.006904069685471 -8.902521450218936 33.23867905198301 -7.552474041542356 -5.006904069685471 -7.552474041542356 33.313400206357514" energy=5.717694409999993 pbc="T T T"
Si       1.98275554       1.11276674       0.78597677       0.13454919       0.03644352       0.03842989
Si      -0.08665174       0.10521540       0.03788899       1.76605928      -1.33832736       1.69553223
Si       1.88741215       1.09119489       3.16416375      -0.17203658      -0.34518486      -0.26743111
Si       3.78986722       2.22540294       4.01800978       2.08606176      -2.95822840      -1.69861004
Si       1.97224295       3.39708967      -0.00401409      -0.09335354       0.02344034      -0.00878710
Si       3.93171284       4.42287267       0.84999865      -0.07032041      -0.44919542       0.04339441
Si       3.82753164       4.47393325       3.14835953       1.88629437       0.96275736      -2.21856053
Si       5.72264392       5.52487613       3.98457543      -0.01484183       0.02237627       0.09371404
Si       3.85996242      -0.02609998      -0.11152602      -0.58657924      -0.47543591       0.26526954
Si       5.71893483       1.08895863       0.83337352      -1.58339183      -1.47653725       4.92076963
Si       5.79561286       1.17712253       3.22569901       0.32794286       0.48719752       0.00062466
Si       7.85037987       2.24391305       3.93559643      -0.11677151      -0.17383282       0.02020552
Si       5.84251643       3.33684425       0.13054984      -0.36463711       3.35954769       3.09157981
Si       7.78103085       4.52510570       0.76624930      -0.00012244       0.05469189      -0.05966255
Si       7.72340751       4.43974001       3.12320186      -0.74121454       0.08269833      -0.66169528
Si       9.65926661       5.55585256       4.04744922      -2.31952289       8.15574800      -4.93541400
Sb      -5.40056418      -5.17366082      -1.32803299      -0.13811555      -5.96815892      -0.31935914
17
Lattice="7.833720727 0.0 0.0 3.8663042279 6.7441854414 0.0 3.8531317687 2.2538391875 6.3768564013" Properties=species:S:1:pos:R:3:force:R:3 config_type=Sb_int virial="21.238526207626478 -14.147652937722944 -18.018933057317692 -14.147652937722944 36.87924883255085 -6.358877953443319 -18.018933057317692 -6.358877953443319 43.754745686394934" energy=8.966278299999999 pbc="T T T"
Si       2.00613902       1.08584888       0.80794310       0.13710832      -0.03578831       0.08930074
Si      -0.12120332       0.00734846       0.04640976       1.06386715      -1.89787269       2.90499034
Si       1.99246947       1.06955616       3.09031060      -0.05267579      -0.46177343      -0.34088775
Si       3.88713117       2.28180935       3.95083150       6.33923096     -10.82092939      -6.13866205
Si       2.01892718       3.37626295      -0.05579193      -0.02599191      -0.05642607      -0.02173556
Si       3.88904977       4.50571483       0.77082508      -0.12636976      -0.12184255      -0.23779352
Si       3.71720205       4.45013332       3.15068904       8.33892042       5.97852407     -14.77582199
Si       5.73491259       5.62099199       3.87551005       0.27238244       0.19439252      -0.27298542
Si       3.80680139       0.01176418      -0.18663817      -0.13328533      -0.04183835      -0.03367110
Si       5.88424217       1.16368549       0.75735270      -0.64905157      -0.21502756       1.34416012
Si       5.81761347       1.03324066       3.11478513       0.37797008      -0.28569013       0.10587688
Si       7.82410361       2.27563869       3.96607688       0.04436085       0.06513456       0.03844274
Si       5.80812726       3.33068087       0.01787537      -0.59320908       0.88746586       1.13241818
Si       7.80736619       4.59676356       0.72359631       0.03819368       0.09538085      -0.01038007
Si       7.83750015       4.51126863       3.17685798      -0.09227564       0.07413534      -0.02997765
Si       9.58146530       5.67482538       3.95032712      -3.12049899       3.94106156      -1.61349014
Sb       3.00778838      -5.17804800      -1.59799267     -11.81867581       2.70109369      17.86021627
17
Lattice="7.6883604835 0.0 0.0 3.8936120746 6.7541672801 0.0 3.8773058056 2.2490006589 6.2846729141" Properties=species:S:1:pos:R:3:force:R:3 config_type=Sb_int virial="31.72626704404654 0.6926676504296254 0.7416211280910875 0.6926676504296254 15.239541167303173 5.974149799028721 0.7416211280910875 5.974149799028721 25.886407763295093" energy=4.559796210000002 pbc="T T T"
Si       1.98287641       1.10669565       0.80483072       1.81068360       0.56726684      -1.31988852
Si       0.02126424       0.00602044       0.01844356      -0.00299149      -0.88587607      -4.34745396
Si       1.91871026       1.13888031       3.12330121       5.45605971       2.08026461       1.98964233
Si       3.85104135       2.22011116       4.07208233      -0.07178461       0.29762230       0.57755475
Si       1.98436108       3.39237366       0.02721188      -0.00327915       0.01809636       0.10686220
Si       3.91476019       4.49332828       0.78178687       0.05459662      -0.66217827      -0.46082808
Si       3.86037121       4.53984862       3.10181612       0.05341003      -0.64536340       0.05199652
Si       5.71613100       5.56700608       3.91351449       0.69266017      -0.81680179       0.63986166
Si       3.78137146       0.07289837      -0.09485591      -0.10855060      -0.04340447      -0.15788524
Si       5.75759252       1.09912843       0.76287799      -1.53885636       0.73843809      -1.28437743
Si       5.76777455       1.12671137       3.07271100      -4.91962888       1.66558874       1.50676105
Si       7.70625858       2.33743012       3.98535379       0.02926871       2.02566987       1.86784334
Si       5.80311870       3.24701009       0.11897718       0.01988757      -0.13389929       0.11817151
Si       7.77222345       4.62835264       0.82751929      -0.02690963       0.06375750      -0.03239923
Si       7.68717707       4.59202905       3.16545225       0.01089258      -0.01760477      -0.11713055
Si       9.59147452       5.62146255       4.02533080      -0.67881491      -0.55483105       0.63381824
Sb       3.82155308      -6.39237725       2.29567598      -0.77664334      -3.69674522       0.22745140
17
Lattice="7.7406426133 0.0 0.0 3.8981351067 6.6871532628 0.0 3.9256723158 2.2425924754 6.3355293415" Properties=species:S:1:pos:R:3:force:R:3 config_type=Sb_int virial="16.72870399041604 13.136583334035468 10.242117037632186 13.136583334035468 32.73214495717568 -5.816303254328686 10.242117037632186 -5.816303254328686 35.570553304305236" energy=5.934137310000011 pbc="T T T"
Si       2.00313736       1.10143464       0.83075872       3.68282339       4.08041538      -2.68121035
Si      -0.02212601      -0.00110522      -0.05701130      -3.83131403       2.00744152      -6.69426409
Si       1.96610447       1.14028787       3.25440645       1.26841546       2.68269781       2.41959040
Si       3.83358444       2.19529025       4.09447227       0.09231615      -0.52737660       0.41281974
Si       1.99283573       3.37131321      -0.04155015      -0.39586068       0.43928952      -0.05628143
Si       3.96481768       4.42979705       0.79627164      -1.78111347      -5.72191647      -2.93820095
Si       3.90903900       4.41592925       3.03821105      -2.26074431      -3.76926879       2.31655835
Si       5.87977159       5.60847372       3.91216367       2.20781384      -0.95957484       3.01368550
Si       3.86864557       0.02619419      -0.13121741       0.21139987      -0.01232117      -0.22147052
Si       5.79351766       1.10098709       0.80693270      -0.26155953       0.13278483      -0.11448002
Si       5.90345762       1.11582600       3.19776828       0.10354558       0.03664414      -0.01757005
Si       7.79366559       2.29738917       3.81458426       0.01317379       0.15052012       0.07395529
Si       5.79507081       3.38659653       0.04253161      -0.00836535      -0.15248469      -0.11343155
Si       7.82870428       4.60398390       0.77047607      -0.07508166       0.04161184       0.05707318
Si       7.74180372       4.57337199       3.15601887       0.11114204      -0.09750242       0.08461938
Si       9.62557307       5.59401121       3.99445603      -0.33349364      -0.01626086       0.15122049
Sb      -6.86733092       3.92208684      -4.45821074       1.25690258       1.68530067       4.30738661
17
Lattice="7.7473126541 0.0 0.0 3.8603033831 6.7544868407 0.0 3.905696256 2.2280536324 6.3942003089" Properties=species:S:1:pos:R:3:force:R:3 config_type=Sb_int virial="21.373926771641848 6.631974448611204 4.521615546563572 6.631974448611204 24.083665166080834 -1.4228440789605523 4.521615546563572 -1.4228440789605523 31.39144123206398" energy=4.821025899999995 pbc="T T T"
Si       2.02902958       1.02017283       0.90942534      -1.11031519       0.55991055      -0.51941464
Si       0.00618547       0.03143189       0.00935578      -0.02711497      -0.14520919      -0.09151255
Si       2.03096244       1.06393340       3.21612392      -0.85250314       0.52653048       0.31574032
Si       3.88235728       2.19964180       4.00534333      -0.13849063       0.57074254       0.36786850
Si       1.95475509       3.39875979      -0.00282185       0.13721271       0.15457156      -0.14385540
Si       3.93601539       4.37043824       0.79149814       0.01591538      -0.05114642       0.01166130
Si       3.88887965       4.49427014       3.24612496       0.06104638       0.05809077       0.01130101
Si       5.73495785       5.51369664       3.99396641      -0.53132276      -0.26722625       0.29272711
Si       3.80378390       0.03629792      -0.13456313      -1.66157974       0.36837494      -7.17711613
Si       5.74241700       1.12668966       0.88138768       3.34352306       2.49414431      -1.76714168
Si       5.89041314       1.10501761       3.12040655       3.31490637       2.18660017       1.66840752
Si       7.73038012       2.15098301       3.99490230      -0.12274366      -0.43111160       0.66770262
Si       5.82537465       3.31392942       0.12622712      -0.26110102      -0.04805674      -0.03740097
Si       7.79733648       4.63685821       0.81255849      -0.14021007      -2.71381776      -1.36011542
Si       7.85974182       4.60567718       3.10529800      -0.12220575      -2.88968821       1.35449488
Si       9.68404385       5.59178963       4.02069801       0.64311284      -0.52635789       0.69468998
Sb       0.29493015      -6.80140034       2.05719623      -2.54812979       0.15364877       5.71196355
17
Lattice="7.6900743505 0.0 0.0 3.9157639056 6.6474467516 0.0 3.918909121 2.2296458282 6.3416858304" Properties=species:S:1:pos:R:3:force:R:3 config_type=Sb_int virial="18.761758328366337 15.298875928589059 9.89266299155161 15.298875928589059 33.39735495485823 -10.131762240925804 9.89266299155161 -10.131762240925804 42.15670825392353" energy=7.7656178799999935 pbc="T T T"
Si       1.94949729       1.14873724       0.82854044       1.16109969      -0.93886737       2.15687976
Si       0.10704157      -0.03834020       0.02180664      -0.96483641      -2.05627355       1.64040362
Si       1.99431328       1.02436671       3.20943955      -0.25096976       0.06656571       0.23093006
Si       3.89221837       2.20863484       3.99775129      -1.40165210      -3.78036247      -1.96306595
Si       2.03539752       3.41060228       0.03916049       1.98169300       3.43978001       3.10270710
Si       3.84360774       4.44391443       0.81011100      -0.08213331      -0.37840110      -0.39030694
Si       3.90786514       4.47766031       3.26037346      -5.66444004       2.69241021      -9.65862823
Si       5.80684269       5.53361839       3.98188513       6.23578160       8.33426378      -6.89381104
Si       3.83787372      -0.00918194      -0.03996893       0.09709744      -0.13995672      -0.05920914
Si       5.77708979       1.07563080       0.83769369      -0.15231578       0.01346833       0.10053833
Si       5.68051943       1.12266689       3.25722352       0.01312609      -0.12396949      -0.00160108
Si       7.71866188       2.21974539       3.95631461      -0.07811045       0.09710488       0.01103295
Si       5.77552060       3.29183552       0.01904015       0.05218912       0.03687827      -0.05253707
Si       7.86207322       4.53313127       0.81761709       0.07186527       0.20964875       0.24827299
Si       7.73174233       4.36175264       3.08892773       0.26935531       0.09358620      -0.30272888
Si       9.53752784       5.57373521       3.99611232      -0.39742178       0.19889298      -0.17264177
Sb      -6.75480933      -2.56826584       5.04040173      -0.89032790      -7.76476843      12.00376528
17
Lattice="7.7315269379 0.0 0.0 3.9205380653 6.6745225342 0.0 3.8727605833 2.2238193133 6.3237560534" Properties=species:S:1:pos:R:3:force:R:3 config_type=Sb_int virial="53.44807992192861 -2.964801357717487 2.269320674752256 -2.964801357717487 49.427480653726285 4.099821926060258 2.269320674752256 4.099821926060258 7.314239520131317" energy=10.241587539999998 pbc="T T T"
Si       1.99906742       1.04533062       0.82807318       0.05651198      -0.06477685      -0.11642826
Si       0.02427301       0.05518068       0.08427650       0.03891631      -0.04418094       0.07184809
Si       1.85204402       1.10206375       3.13830201       2.93988653       3.03335123      -1.19345847
Si       3.82702815       2.19941726       3.99178364       0.01521170       0.10410825       0.37830452
Si       2.07016530       3.39772372      -0.01565455       0.51168518      -0.01273037       0.38083899
Si       3.85640171       4.39187205       0.83609070      -0.07025086      -0.46696878      -0.14541590
Si       3.88782519       4.37547418       3.11524077      -0.91764298     -15.27906239      -5.18652620
Si       5.76039537       5.47907161       3.91682401      15.30038496      -7.21140623       3.66220642
Si       3.79147645      -0.04408797      -0.03502914      -0.00822231       0.07666572       0.09042056
Si       5.63901298       1.05018959       0.90882722      -0.07701260      -0.00000293      -0.06750889
Si       5.80496855       1.13263305       3.19772365      -1.44968677       1.33704750      -0.53973667
Si       7.73694022       2.25340181       3.90296897      -0.04432775       1.42227415       0.33388828
Si       5.72421512       3.26616585       0.02575539      -0.22515431      -0.02984642       0.16104519
Si       7.82161963       4.43187988       0.77420310       0.00575105      -0.01538391      -0.05706122
Si       7.86391778       4.43857564       3.12981595       0.31885882      -0.26991879      -0.46299280
Si       9.74514655       5.51040626       4.04090020      -6.58765476      -2.27000127       2.12514492
Sb      -3.77286386      -2.61512668      -2.71696112      -9.80725416      19.69083201       0.56543144
17
Lattice="7.7985348025 0.0 0.0 3.8836300025 6.7014549809 0.0 3.9080751189 2.2616358054 6.337142677" Properties=species:S:1:pos:R:3:force:R:3 config_type=Sb_int virial="33.43540001342399 -15.244106721437701 -9.144456774718607 -15.244106721437701 18.705215984618313 5.7920079513049485 -9.144456774718607 5.7920079513049485 39.43070107734908" energy=7.4919700300000045 pbc="T T T"
Si       1.96387924       1.09809906       0.79774953      -0.34447940      -0.17203810      -0.16861337
Si      -0.08550277       0.02130411       0.03908404      -0.03496616      -0.01796182       0.19474569
Si       1.93791952       1.16248258       3.16899303      -0.89762050      -0.16027240       0.35109075
Si       3.84850407       2.25542197       4.07442389      -2.23551466       0.94286358       5.75406119
Si       1.88595717       3.32478134      -0.09472211      -0.25080459       0.05408533      -0.05372445
Si       3.92718434       4.50514246       0.69060896      -0.16934959       0.70893161      -0.48962494
Si       3.83821326       4.41382643       3.12546024      -0.17131949       0.88781159       0.48101580
Si       5.85163069       5.54093860       3.84183483       0.25777808      -0.08077308       0.03040418
Si       3.85757378      -0.03137788      -0.10031626      -0.22168848      -1.16190496      -0.96480962
Si       5.79565376       1.11314181       0.79011874      10.96594174      -7.08872981     -10.29207953
Si       5.86335819       1.10425000       3.18648461       7.58898480      -4.31784233       6.49534925
Si       7.82414069       2.33476490       3.91274892       0.04346064       0.17558521       0.12260247
Si       5.96945901       3.33460589       0.19603900       1.20230758       0.64115195      -0.56114726
Si       7.87888202       4.59349165       0.76901859       0.06567293       0.26599796       0.02273943
Si       7.79754464       4.41883220       3.05981845      -0.06249697      -0.14339707      -0.11301361
Si       9.68877623       5.62274782       3.95662631      -0.36206823      -0.00845621      -0.24872955
Sb       4.44945921       1.97589803       1.92133017     -15.37383769       9.47494857      -0.56026642
17
Lattice="7.7437304014 0.0 0.0 3.9209545362 6.6660062945 0.0 3.9233086361 2.2309800577 6.3634769293" Properties=species:S:1:pos:R:3:force:R:3 config_type=Sb_int virial="19.782414491182013 2.563657674723161 0.9592904138691997 2.563657674723161 29.660843907277066 -2.348541373138593 0.9592904138691997 -2.348541373138593 13.08666652417936" energy=3.5225278300000014 pbc="T T T"
Si       1.93646294       1.11079356       0.77636158      -1.36267301      -0.51085723       0.94360061
Si      -0.03953541       0.01226763      -0.03907874      -0.02598148       0.02102969      -0.33079047
Si       1.97629882       1.13491911       3.20640706       0.14581256       0.10956188       0.08992619
Si       3.91678424       2.29563722       3.97393091       0.00487611      -0.03490180       0.00168317
Si       1.93342435       3.25969386       0.04140939      -2.27571162       1.22530538       0.69300362
Si       3.92735607       4.46503778       0.72432110      -0.13206623       1.08032685       0.54468942
Si       3.83143296       4.45543615       3.19494380       0.00079596      -0.18365276       0.14403735
Si       5.81673393       5.47765146       3.93614933      -0.32056234       0.17080884      -0.31117808
Si       3.76961600      -0.08817290      -0.05929102      -1.28370598      -8.32677556       1.33262007
Si       5.75914608       1.03107784       0.84655548       2.02521003      -1.13830769       1.87234690
Si       5.83932761       1.01937049       3.11927942      -0.15159316       0.06014296      -0.09066598
Si       7.80980758       2.23880821       3.95073216      -0.03974384      -0.85106196      -0.68631240
Si       5.97651416       3.36830477       0.10401389       2.53150541       1.81204255       0.55663450
Si       7.81398045       4.49991079       0.77753739      -0.12353894       0.49437775       0.11126989
Si       7.77917691       4.43449296       3.05491767       0.03790060       0.02573251      -1.20337195
Si       9.67155363       5.60689256       4.06666536       0.43758387       0.42570950      -0.50478245
Sb       3.98524054       2.01970443      -0.51994656       0.53189208       5.62051908      -3.16271038
17
Lattice="7.7645160132 0.0 0.0 3.8979566203 6.7569469677 0.0 3.8511062407 2.22211601 6.3093705844" Properties=species:S:1:pos:R:3:force:R:3 config_type=Sb_int virial="29.388652973426453 -2.9408784396659633 -1.4748121110017185 -2.9408784396659633 27.25051204070413 -0.12773165915393614 -1.4748121110017185 -0.12773165915393614 13.761147386851842" energy=4.233018109999989 pbc="T T T"
Si       2.01031151       1.05199310       0.86874076       0.52563940       0.17124680      -0.18883866
Si      -0.03952533      -0.00160158      -0.01919138       0.05650234       0.05091129      -1.12175837
Si       1.85069021       1.09197334       3.12268087       2.97779283       1.57570091       0.44683640
Si       3.78577603       2.14470896       4.01616288       0.00764739      -0.28835819       0.30245738
Si       1.97777653       3.43272493      -0.07165184      -0.15953307       0.04517315      -0.10920409
Si       3.89753490       4.52783234       0.85121912       0.00980260      -0.60136522      -0.50057924
Si       3.78887334       4.47260401       3.19894050       0.04092553      -3.25958577       0.66759264
Si       5.79518960       5.62868691       4.04400395       1.19674217      -0.43748378       0.86522905
Si       3.92400822       0.08552971      -0.02621990       0.00057906      -0.01229863       0.17783405
Si       5.77323231       1.14121269       0.73435735      -0.75414857       0.53636778      -0.87585900
Si       5.73492719       1.12301937       3.08587930      -6.57378469       4.09705980       0.86115942
Si       7.76520474       2.26696278       3.76223399       0.67060227       2.28148777       1.10492299
Si       5.95971758       3.27763678       0.02676869       0.24142135      -0.10857598       0.12892411
Si       7.81740624       4.55557309       0.77415560      -0.00256894       0.00968665      -0.02970484
Si       7.68866869       4.53896575       3.09671198      -0.18483121       0.08654890      -0.23219955
Si       9.72821787       5.56348531       3.92226914      -1.77594783      -1.79993541       1.64943108
Sb      -0.15490093       4.56042753      -3.63290767       3.72315935      -2.34658008      -3.14624337
17
Lattice="7.8104083328 0.0 0.0 3.8956488447 6.648607126 0.0 3.8914713124 2.2339632909 6.388700298" Properties=species:S:1:pos:R:3:force:R:3 config_type=Sb_int virial="50.99860201784327 3.1600530450281417 5.809659272091177 3.1600530450281417 10.348497289246989 9.461396444028807 5.809659272091177 9.461396444028807 39.3554505743318" energy=8.77783771 pbc="T T T"
Si       1.93252947       1.03203591       0.76198096      -0.03409935      -0.28548728       0.02695632
Si      -0.08067934      -0.02475928       0.01602706      -0.10927540       0.18799662       0.17401628
Si       1.91306182       1.12054463       3.21631204      -0.75664522       0.57365160      -0.47200607
Si       3.91252348       2.23112712       4.04407611       0.08263455       0.11851350       0.05140787
Si       1.99479343       3.39917755      -0.01553224      -6.89481514      -1.34868490       7.17784641
Si       3.98844400       4.50501749       0.75562529       1.09590412       1.56082502       2.80274128
Si       3.89218575       4.40790599       3.14617225       0.18103380      -0.33752933      -0.07656626
Si       5.79505276       5.55690206       3.97430758     -16.97783224      -2.16693672     -10.66432630
Si       3.85552669      -0.02536644      -0.04703345       0.02956199       0.04578797      -0.06601028
Si       5.82608412       1.15979285       0.77538387       0.03175040       0.04682342       0.01260066
Si       5.89458983       1.00971014       3.17146515       0.17803976       0.11279675      -0.22363720
Si       7.81844396       2.24043565       3.93205931       0.00269598       0.02421749       0.00352644
Si       5.80842545       3.29088058       0.05121269       0.87422095      -0.28108435       0.68085230
Si       7.75983116       4.53028311       0.84768435      -0.40809009       0.41209661       0.06797998
Si       7.75437732       4.39163167       3.18391081       1.13607254      -3.70029846      -3.73510762
Si       9.64991120       5.51296123       4.05962167       2.38421077      -0.09302744      -0.70961053
Sb       7.40991947       5.85115764       4.94481150      19.18463256       5.13033950       4.94933670
17
Lattice="7.7071533994 0.0 0.0 3.9124786695 6.6858432234 0.0 3.8864892539 2.2395938073 6.3809494255" Properties=species:S:1:pos:R:3:force:R:3 config_type=Sb_int virial="50.02953123230864 6.260371004900857 -4.626151817168332 6.260371004900857 46.40858142678027 0.7722702075461014 -4.626151817168332 0.7722702075461014 6.912910321031872" energy=9.094979440000003 pbc="T T T"
Si       1.98258580       1.05886452       0.84770769       0.02812985      -0.09629603      -0.11115549
Si      -0.06711633      -0.03001493       0.06817578       0.04985157      -0.11322981       0.24895515
Si       1.95258014       1.12168169       3.14242494      -0.45126377      -2.04156925      -0.60381644
Si       3.92151828       2.18708367       4.05302012       3.85429913      -3.88756435       2.00237832
Si       2.01876954       3.36572206      -0.00508163       0.09030963       0.08078055       0.10502605
Si       3.88786020       4.39997118       0.67981663       0.49921923       0.09922688      -0.53988802
Si       3.88559821       4.49457044       3.13481472      16.19036108       9.14038359      -4.72913104
Si       5.76827797       5.50850004       3.91501053      -0.25422849      -0.14462359       0.34587491
Si       3.88073172      -0.00510338      -0.08194731       0.01886719      -0.01551794       0.09817096
Si       5.68118249       1.08274508       0.67257232      -0.00917336       0.03776922      -0.20545338
Si       5.80447017       1.11155755       3.29238342       0.04063575       0.05935699      -0.36495853
Si       7.80157180       2.25995574       3.96293900      -1.51841887      -1.01482745       0.57924033
Si       5.82013986       3.42682979       0.07154324      -0.07945141       0.34534421       0.23991357
Si       7.70923716       4.50475250       0.73336909      -0.22833002       0.03028253      -0.25529666
Si       7.77017215       4.51999357       3.21748860      -3.81916293       1.38614639      -0.85591455
Si       9.74846631       5.58341195       4.04773424      -1.06310575      11.11821645       4.07435389
Sb      -5.48927688       3.60929726       3.50233456     -13.34853881     -14.98387838      -0.02829904
17
Lattice="7.7000336656 0.0 0.0 3.8876254576 6.6666728842 0.0 3.91873849 2.2258778788 6.3578775187" Properties=species:S:1:pos:R:3:force:R:3 config_type=Sb_int virial="15.916232283872526 -14.691801624823304 -8.821792281825813 -14.691801624823304 42.33024086333166 -8.248831214407094 -8.821792281825813 -8.248831214407094 49.16556744282694" energy=9.689229600000004 pbc="T T T"
Si       2.02440244       1.13393243       0.93980734      -0.20132395      -0.16286387       0.15343904
Si      -0.00018133       0.08020191       0.01932430      -0.05609761       0.06315535      -0.02806184
Si       1.84797020       1.09272750       3.15903490       4.08451297       1.22444155      -6.06669872
Si       3.78740764       2.23942189       4.04492359       0.04651357       0.14342468      -0.02899528
Si       1.94173891       3.44704601      -0.04579061       1.21468077      -1.36355011       1.12942193
Si       3.85485311       4.44020086       0.82527245       0.02001061       0.00791007       0.06993388
Si       3.87435989       4.42872665       3.18531729       0.02432226      -0.13346083      -0.12047282
Si       5.71674717       5.58947856       3.94039587       1.27410624      -2.72388082      -1.59331489
Si       3.92847643      -0.00444787      -0.00088535      -2.02145344       7.48701007       7.56066815
Si       5.66916975       1.04195372       0.80330045      -0.17057943       0.08055477       0.01939269
Si       5.67518937       1.05289619       3.23670719      -0.56924684       0.06326567      -0.55621806
Si       7.78261409       2.27469910       3.93157274      -5.23272210      12.07399278      -9.26763144
Si       5.90630077       3.21962202       0.04319670      -0.11359665      -0.23673964       0.16170089
Si       7.76241310       4.49905340       0.71157049      -1.67033082      -1.67485901       4.33497005
Si       7.72255596       4.48955044       3.22928577       0.27504365       0.08050226       0.39434688
Si       9.65080989       5.59161998       4.02798898      -0.00411485      -0.03488021       0.03647874
Sb       0.67129789       5.18066456      -1.36136031       3.10027561     -14.89402270       3.80104078
17
Lattice="7.7647969019 0.0 0.0 3.8548941782 6.6875671279 0.0 3.8975342559 2.2467078824 6.380929264" Properties=species:S:1:pos:R:3:force:R:3 config_type=Sb_int virial="56.060872813276994 -3.6421377628323923 1.2126414265145595 -3.6421377628323923 47.374651504664634 5.772460927451204 1.2126414265145595 5.772460927451204 7.0755396518911695" energy=10.388573430000008 pbc="T T T"
Si       2.02152798       1.05742208       0.78794793       0.27946758       0.03813794       0.44326703
Si       0.02963420      -0.02423688       0.02526530       6.71751643       1.45050648      -1.24918539
Si       1.93173869       1.16907595       3.17932616      -0.00623331       0.03638614       0.00907641
Si       3.82408169       2.26368363       4.10370113       0.22297324       0.10029327      -0.24635320
Si       2.00211617       3.35621085      -0.03965340       0.04356069      -1.38692484      -0.32663762
Si       3.94756108       4.43492808       0.83934182       1.17981167      -0.86108076       0.36721777
Si       3.82244054       4.47185907       3.28505776      -0.00935999       0.04970807       0.09078407
Si       5.80954268       5.56555080       3.97150792       0.01329874      -0.07506402      -0.11219854
Si       3.90044255      -0.00817764      -0.00611592     -16.15564008       5.71585648      -2.67698408
Si       5.71854685       1.18306298       0.78658639      -0.61749611      16.11588961       5.41298152
Si       5.75297803       1.12528909       3.18752588       0.01107645       0.22218416       0.11753538
Si       7.81110988       2.24776740       3.93042311      -0.40550358       0.28217461      -0.37920393
Si       5.87120469       3.27171521       0.08849514      -0.24681273      -0.51894641      -0.29975917
Si       7.86119358       4.56265890       0.81487212      -3.28819296      -2.64132905       1.59732534