16
Lattice="7.566594195261068 -0.15011367526971225 -0.18512702785395957 3.770156212352504 6.600213895976995 -0.11594206445238342 3.7328451185881035 2.1410933050328778 6.143965493543134" Properties=species:S:1:pos:R:3:force:R:3 config_type=Sb_subs virial="15.215276468397569 1.9217317785686099 0.7661896766891214 1.9217317785686099 10.427610301759932 1.8119560661877532 0.7661896766891214 1.8119560661877532 10.864232759103125" energy=-4.596429659999998 pbc="T T T"
Si       1.83336795       0.98699720       0.72866749       4.61087299       2.49439203       1.83732266
Si       1.75370148       0.90982832       3.06023546      -0.12864647      -0.05839496       0.16963857
Si       3.54374386       2.11215988       3.75420100      -0.04303756       0.03358715      -2.72347571
Si       1.81221629       3.29739286      -0.12293601      -0.30830634       0.08867062      -0.11268198
Si       3.66790186       4.24613881       0.64654429       0.04940944      -2.15274103       0.69725883
Si       3.55152580       4.29310599       2.89989548      -0.10218457       0.05669277       0.21894199
Si       5.58505036       5.35055963       3.65131465       0.16919596      -0.02463900      -0.02382327
Si       3.61773003      -0.21409147      -0.28623407       0.14197652      -0.21229506      -0.16154428
Si       5.53203686       0.82162471       0.58467175      -2.61788132       1.45246581       1.05921230
Si       5.46665956       0.97736994       2.92502568       0.14561239      -0.07094067       0.06586532
Si       7.36702764       1.94007057       3.58595118       0.04898295       0.10178153       0.02588130
Si       5.56198415       3.17876570      -0.11002537       0.20168331      -0.09599751      -0.10759868
Si       7.59547381       4.27290105       0.52064838       0.07214580       0.04420582       0.12476468
Si       7.45474785       4.22438000       2.76691083      -0.04061136      -0.01355364      -0.04445591
Si       9.31198652       5.17493723       3.66213693      -0.03762906      -0.06542701      -0.05614377
Sb      -0.02240905      -0.04515736       0.01067859      -2.16158267      -1.57780688      -0.96916205
16
Lattice="7.639356118446268 -0.10612354485639491 -0.1930387208835437 3.7748066465868746 6.550118461149042 -0.1326182570151824 3.752122292670861 2.0855233082493276 6.1449179395848565" Properties=species:S:1:pos:R:3:force:R:3 config_type=Sb_subs virial="12.839039385453448 -2.953607885003232 -3.245689600307412 -2.953607885003232 11.664460918694537 0.8288832883359392 -3.245689600307412 0.8288832883359392 22.268514509186172" energy=-3.637127669999998 pbc="T T T"
Si       1.96366513       1.02062927       0.65621177       2.15815676       1.25114601       0.96056160
Si       1.82685789       0.97290856       3.09863989      -0.06783105       0.00903180       0.13009337
Si       3.70731511       2.03732328       3.98958653       0.05286040      -0.12489459      -7.73970580
Si       1.95004200       3.25992159      -0.08192068      -0.09987857      -0.03339440      -0.15862678
Si       3.83815007       4.27216406       0.58118562       0.12622784      -2.88941268       1.01772021
Si       3.83388581       4.25957638       3.08997427      -0.04367707       0.12011069       0.06264126
Si       5.76386110       5.48245407       3.92586187       0.13984826      -0.05557055       0.07625887
Si       3.76905963      -0.08062600      -0.23401088      -0.01582946      -0.22844904      -0.26693914
Si       5.71727340       0.91173669       0.73160098      -4.28856603       2.50314794       2.23555227
Si       5.84931672       0.91900200       3.14915772       0.11351113      -0.06644238       0.26324533
Si       7.63334004       2.11216605       3.80321331       0.01911472       0.10201460       0.06253015
Si       5.80849292       3.29929752      -0.07561209       0.12516610       0.11446936      -0.16670758
Si       7.81703817       4.44577626       0.69214854       0.03259861       0.05240341       0.14413833
Si       7.62323214       4.30015139       3.07042634      -0.09497213      -0.05300257       0.02147194
Si       9.59480526       5.49885721       3.97497772      -0.03816544      -0.00467946      -0.01731794
Sb      -0.13496823      -0.00752612       0.01973334       1.88143594      -0.69647814       3.37508391
16
Lattice="7.617472186016713 -0.12002130037789743 -0.17121813958872076 3.753076186588779 6.585874326341222 -0.1924160980914645 3.77166028819205 2.1362737568435923 6.22175731694933" Properties=species:S:1:pos:R:3:force:R:3 config_type=Sb_subs virial="13.390936215818563 -1.4932543250177672 -2.767093118162527 -1.4932543250177672 11.278420185740458 0.6465649709995032 -2.767093118162527 0.6465649709995032 21.050429694750527" energy=-3.6688682000000057 pbc="T T T"
Si       1.83835980       0.93011903       0.79577848       3.15219420       1.81885314       1.73759786
Si       1.78119406       0.96791937       3.17522693      -0.13686659      -0.08690780       0.06287341
Si       3.84362916       2.23886609       4.01225241       0.39335516       0.21620281      -7.02741288
Si       1.85442118       3.27542799      -0.24163848      -0.10984456      -0.16612306      -0.19507238
Si       3.70881640       4.29126967       0.57498789      -0.08262987      -2.54909390       0.81058830
Si       3.80692644       4.37639784       3.06336043      -0.03995060       0.21528455       0.12955497
Si       5.63083976       5.56788194       3.77952565       0.13923777       0.06117543       0.04518941
Si       3.67372700      -0.00749855      -0.19658286      -0.07965743      -0.19699470      -0.30322211
Si       5.66701447       0.92924912       0.64470718      -4.16876912       2.48464193       1.92757484
Si       5.82377444       0.97904307       3.02770703       0.09398950      -0.08395214       0.31479584
Si       7.68490898       2.11272832       3.77796162       0.13318735       0.04536330      -0.02944312
Si       5.76892093       3.16789951      -0.00452541       0.03281102       0.20575272      -0.15200178
Si       7.73320219       4.37996758       0.68757343       0.06837351       0.00474889       0.18113871
Si       7.56886900       4.44428309       3.06992409      -0.14836495      -0.00046989       0.02245507
Si       9.45708062       5.63499275       3.93558820      -0.00282972      -0.06611703      -0.03041296
Sb      -0.14149225      -0.01958076      -0.02317883       0.75576431      -1.90236423       2.50579681
16
Lattice="7.561969938847882 -0.11041326233655509 -0.10614937580201625 3.732100991101175 6.527369866214121 -0.15521489216963524 3.700341952258984 2.142244219306046 6.14556633077725" Properties=species:S:1:pos:R:3:force:R:3 config_type=Sb_subs virial="10.286724911326464 -3.973777192865329 -2.069905046843078 -3.973777192865329 18.36757324327884 -3.165612323147001 -2.069905046843078 -3.165612323147001 12.269328481075084" energy=-4.019046670000009 pbc="T T T"
Si       1.94450383       1.06177371       0.81562666       0.94504013       0.79715310       0.44346553
Si       1.83553916       1.11938177       3.03833182      -0.06512969      -0.00772142      -0.09062973
Si       3.79668931       2.04477550       3.78388477       0.07130103       0.03560745      -2.55733294
Si       1.87366355       3.28937986      -0.03641013      -0.12903740      -0.09814086      -0.00663561
Si       3.86190949       4.40498516       0.68581971       0.53445556      -6.58394916       2.66628885
Si       3.73878979       4.42528739       3.11651845      -0.03503465       0.12708309       0.12057216
Si       5.52731596       5.38069624       3.85108919       0.07782087       0.01798735      -0.03343778
Si       3.84310686      -0.09586817      -0.05413531      -0.31448628      -0.18453833      -0.14609744
Si       5.56919723       0.95957550       0.63999595      -3.56718278       2.08101925       1.34404366
Si       5.74919421       1.03995491       3.09184158       0.07578914      -0.05243216       0.23275036
Si       7.57956585       2.13563466       3.87810769       0.10978034       0.08820749       0.07404217
Si       5.63231909       3.11535964      -0.08133491       0.11200462       0.30284355      -0.29451477
Si       7.58758002       4.40726608       0.63634102       0.11636191       0.09418916       0.07205455
Si       7.61136860       4.43035828       2.98403637      -0.04920749      -0.04619690       0.00277650
Si       9.38899674       5.37361561       3.89226506      -0.02899749      -0.05184031       0.00907694
Sb      -0.16676556      -0.10958676       0.02807225       2.14652215       3.48072869      -1.83642245
16
Lattice="7.6353196329827595 -0.1950438571199156 -0.11840120176965219 3.7001513945481803 6.58711535794846 -0.17238722565744413 3.7275711909894187 2.063083164049521 6.22622315373273" Properties=species:S:1:pos:R:3:force:R:3 config_type=Sb_subs virial="13.761206237210065 -6.204621375767287 -4.744431236558935 -6.204621375767287 13.793962329542174 1.0836536164760027 -4.744431236558935 1.0836536164760027 15.214950466100323" energy=-3.8411201800000043 pbc="T T T"
Si       1.96851737       1.02404319       0.69505315       1.35511549       0.90500481       0.64366420
Si       1.89402047       1.07311806       3.10702397      -0.12768703      -0.02474628      -0.09323974
Si       3.74073140       2.16112628       3.94996562       0.08448967       0.18943927      -4.54068043
Si       1.78316181       3.33536985      -0.10962904      -0.16537195      -0.16076726      -0.01091465
Si       3.82130487       4.29600523       0.58595150       0.08003441      -2.96427285       0.88900169
Si       3.84176504       4.40320441       3.14688077      -0.08091466       0.19097803       0.18058629
Si       5.64122173       5.40805275       3.88429311       0.13907962      -0.03931131       0.07464667
Si       3.72424683      -0.03450958      -0.14417760       0.06610413      -0.18235301      -0.08918020
Si       5.80871842       0.87075188       0.72118365      -6.11047822       3.96368546       3.00573054
Si       5.73272755       0.99730914       3.12707878       0.19175693      -0.15024943       0.12592181
Si       7.77111490       2.10913856       3.83447847       0.09966529       0.08175304      -0.00643631
Si       5.75116469       3.22457430      -0.10531323       0.23544806       0.08662567      -0.20251751
Si       7.69761436       4.33417513       0.66178875       0.10355792      -0.00012288       0.03636289
Si       7.69622608       4.41882665       3.11206134      -0.10595763      -0.00550896       0.00982630
Si       9.68529874       5.41124924       3.95469880       0.01718474      -0.06599441       0.00986970
Sb      -0.17654527      -0.06074981       0.00956233       4.21797324      -1.82415989      -0.03264124
16
Lattice="7.645741032199048 -0.17327851448756357 -0.1005726727146591 3.7839714529175423 6.509804052737845 -0.19978837474383318 3.7208339571466817 2.04437791490222 6.152161201987573" Properties=species:S:1:pos:R:3:force:R:3 config_type=Sb_subs virial="13.493366259627704 1.0725499830559917 1.0238593409133219 1.0725499830559917 9.372443592052592 -0.05981948278994248 1.0238593409133219 -0.05981948278994248 18.11321096117227" energy=-4.134388600000008 pbc="T T T"
Si       1.86810869       1.00550653       0.61933074       4.75622753       2.64438817       1.84274491
Si       1.89289939       0.94895394       2.94424852      -0.09363280      -0.12254716       0.13413051
Si       3.72529146       2.03951137       3.83872231      -0.09261760      -0.09523368      -5.87910095
Si       2.02414494       3.19023531      -0.08111277      -0.21162914      -0.11112125      -0.16437154
Si       3.77047874       4.22782733       0.67107967       0.10776028      -1.77578603       0.72524327
Si       3.80320304       4.25184018       3.06311978      -0.05089250       0.19997297       0.04184661
Si       5.81535482       5.39459107       3.76604254       0.12320090      -0.03425646       0.03693488
Si       3.75561641      -0.16779977      -0.10745577       0.05965902      -0.26650103      -0.14618236
Si       5.71758991       0.97054221       0.71790483      -2.21913485       1.37629585       0.92697152
Si       5.74261796       1.09124406       3.01165085       0.18013337      -0.12881798       0.12210222
Si       7.76731722       2.14410024       3.86144692      -0.04888413       0.17919812       0.05052003
Si       5.76638903       3.24822980      -0.12808938       0.10768787      -0.07098599      -0.11144563
Si       7.77556213       4.35497297       0.67548828      -0.04036933       0.10947413       0.16943552
Si       7.67792431       4.31941743       2.94202307      -0.01766776      -0.02435318      -0.06846605
Si       9.68792577       5.49070226       3.79957656      -0.05167396      -0.01357581       0.02977576
Sb      -0.01980423      -0.00997648      -0.07643709      -2.50816689      -1.86615066       2.28986130
16
Lattice="7.597839966388965 -0.1917261102662085 -0.10064057446646812 3.7079026726654463 6.5433554655603 -0.16235423374950536 3.7759658462369523 2.0537816130163185 6.176163815801536" Properties=species:S:1:pos:R:3:force:R:3 config_type=Sb_subs virial="7.204940494778185 -2.4497236673690956 -1.7223343531706046 -2.4497236673690956 15.899921060909946 -5.027134803603137 -1.7223343531706046 -5.027134803603137 17.845323203858534" energy=-4.093504420000002 pbc="T T T"
Si       1.83778622       1.04878887       0.76603790       1.32774401       0.98147159       0.59697549
Si       1.80797609       1.10618957       3.06957428      -0.14224182      -0.10415535      -0.12534564
Si       3.79811999       2.11369168       3.86586810       0.29649576       0.25121060      -5.18165115
Si       1.82309042       3.25369390      -0.16279924      -0.04308125      -0.21052588      -0.09447270
Si       3.77418837       4.39916599       0.79870557       0.33332984      -5.43975250       2.36184073
Si       3.67014745       4.38526440       3.07798973      -0.06171976       0.22677906       0.27067115
Si       5.74913077       5.46540006       3.96471617       0.10363636      -0.01430743       0.07730870
Si       3.69928207      -0.04774905      -0.10399719      -0.11363036      -0.11615403      -0.09122134
Si       5.65686525       0.96583652       0.72200360      -2.34725227       1.48312139       1.08858345
Si       5.81055492       0.99990743       3.09324094       0.11882667      -0.18335361       0.12181263
Si       7.60172869       2.04107214       3.73339517       0.07810796       0.12365831       0.00679329
Si       5.73081644       3.22403271      -0.02203537       0.13575102       0.11620921      -0.25149067
Si       7.70604066       4.49291252       0.71782795       0.04469305       0.04506526       0.12591396
Si       7.56713770       4.39750064       3.03052479      -0.08985936      -0.05351670       0.02403659
Si       9.54482002       5.59988679       3.99292948      -0.03184270       0.06252255      -0.01893431
Sb      -0.18084254      -0.18711871      -0.07192860       0.39104287       2.83172755       1.08917984
16
Lattice="7.601960167499422 -0.1488196029228621 -0.1906046448754102 3.703531319092861 6.515690337864676 -0.16668481286609735 3.7425419232592105 2.062253829113099 6.197342311515343" Properties=species:S:1:pos:R:3:force:R:3 config_type=Sb_subs virial="8.212471889261588 1.486473125008013 0.8463594031721344 1.486473125008013 16.21853039803693 -6.996413121475165 0.8463594031721344 -6.996413121475165 28.417640685474737" energy=-2.606631710000002 pbc="T T T"
Si       1.80359672       1.02086184       0.79406558       2.97302247       1.96984014       1.42018208
Si       1.74736410       0.97496423       3.06959528      -0.08656936      -0.11945374       0.09871477
Si       3.74268374       2.16531801       3.99401410       0.03827490       0.89755302     -10.42566212
Si       1.95464058       3.25536255      -0.17628690      -0.12780600      -0.27411712      -0.10426107
Si       3.89217688       4.40725303       0.68541871       0.33729362      -6.28110402       2.85594349
Si       3.78757493       4.46253681       3.04393276      -0.04596226       0.22014445       0.26032716
Si       5.60757120       5.49546710       3.79861229       0.09431450       0.07475801      -0.00961069
Si       3.84596554      -0.15742626      -0.31158365      -0.24923712      -0.03654819      -0.07076007
Si       5.60797751       1.07972772       0.53659676      -0.90483311       0.25988864       0.44358257
Si       5.74581384       0.98724160       2.98375024       0.01110448      -0.08684139       0.07997394
Si       7.73459284       2.13335916       3.70960504       0.05261711       0.10846603       0.07200062
Si       5.80451207       3.26544972      -0.10492084       0.11390715       0.07430127      -0.25163020
Si       7.68892231       4.53908429       0.65774765       0.02785528       0.10149528       0.17853208
Si       7.72295866       4.49695949       2.98920432      -0.04724218      -0.08475549      -0.06371771
Si       9.59487064       5.46159113       3.94346832      -0.05104180       0.00872431       0.08973687
Sb      -0.01520722      -0.15576213      -0.12716386      -2.13569767       3.16764879       5.42664826
16
Lattice="7.596493131460411 -0.15669592856589157 -0.131785754851159 3.7334040840420197 6.592447841672549 -0.12275130232420231 3.7044762263235786 2.098044458490544 6.2163849274859215" Properties=species:S:1:pos:R:3:force:R:3 config_type=Sb_subs virial="10.780691593556359 -0.7597555683819254 -1.6901375174751925 -0.7597555683819254 10.628858545113763 0.12423869501854386 -1.6901375174751925 0.12423869501854386 14.282927141692063" energy=-4.744167989999994 pbc="T T T"
Si       1.92433657       0.90094190       0.78654186       2.82274541       1.52649278       1.12035474
Si       1.88233439       1.09576338       3.12114974      -0.32450694      -0.07048412      -0.09023770
Si       3.67030539       2.24185592       3.89744046       0.06628334       0.07461457      -4.06398314
Si       1.87392361       3.35960633      -0.04432257      -0.10872167      -0.22373704      -0.03223339
Si       3.82498176       4.35013038       0.80110324      -0.12213693      -2.30821785       0.69292993
Si       3.69192356       4.37505671       3.18964624      -0.09342216       0.28219657       0.03002675
Si       5.74849787       5.54848038       3.93595745       0.15505962      -0.01829999       0.04414022
Si       3.67988717      -0.02141895      -0.21076905      -0.04535078      -0.14776805      -0.19969183
Si       5.70895783       1.05969362       0.78637507      -2.74300576       1.74085867       1.32927896
Si       5.76835508       1.11003251       3.06288392       0.13331865      -0.08809649       0.17340885
Si       7.72426868       2.22278030       3.86431557       0.08163145       0.09339279       0.05857630
Si       5.78414069       3.34054058       0.02839325       0.14748346       0.07340113      -0.22318013
Si       7.64159080       4.44029153       0.68772103       0.00633266       0.09092212       0.11608273
Si       7.64528697       4.41064141       3.11884071      -0.06558978      -0.05380598      -0.01394395
Si       9.51959762       5.63704324       4.02745803       0.00101751      -0.05683769       0.03904851
Sb      -0.11617310      -0.01800803      -0.01237528       0.08886192      -0.91463143       1.01942312
16
Lattice="7.6486612997393335 -0.16289687414752918 -0.11220546251437356 3.7044932991630555 6.538994678606945 -0.10658595691108622 3.760400412635341 2.143370274803916 6.162242799433582" Properties=species:S:1:pos:R:3:force:R:3 config_type=Sb_subs virial="7.1823725931619995 -0.5576587376598807 -0.709948693795781 -0.5576587376598807 11.169603432887873 -3.695971405883606 -0.709948693795781 -3.695971405883606 29.42539982736831" energy=-2.9779996700000027 pbc="T T T"
Si       1.96434782       1.05648100       0.62722728       1.65494113       0.98051289       0.67006284
Si       1.93646426       1.03212447       3.08123202      -0.16680559      -0.04220607      -0.06386621
Si       3.78217056       2.18018912       3.97008307      -0.04657377       0.97773038     -12.24784952
Si       1.83510662       3.27338770      -0.05921381      -0.16154172      -0.21597013       0.02203390
Si       3.87148554       4.24369370       0.75728528       0.17935347      -3.15941956       1.16946796
Si       3.71594722       4.31685578       3.05448819      -0.05797837       0.22798849       0.19869398
Si       5.63648541       5.42847115       3.89324691       0.11354302       0.02262884       0.08762882
Si       3.89893482      -0.19394475      -0.22086889      -0.14360301      -0.11799129      -0.03329241
Si       5.78038565       0.91878227       0.78140531      -1.59902631       0.79245386       0.71562092
Si       5.72102482       1.02753636       2.96850474       0.17221914      -0.12468944       0.09917483
Si       7.81634748       2.06664311       3.79936411       0.08194518       0.04465004       0.10419755
Si       5.87079935       3.17675111       0.04463445       0.08845027       0.08397691      -0.07641271
Si       7.72373194       4.45046273       0.60251769       0.06903053       0.12198111       0.02570627
Si       7.71220655       4.35473169       2.99187872      -0.07378514      -0.04258804      -0.08330732
Si       9.59591476       5.57422515       3.80210753      -0.01764067       0.00962758      -0.01323417
Sb      -0.02735830      -0.19222166      -0.15940196      -0.09252816       0.44131441       9.42537525
16
Lattice="7.641501430778508 -0.14497549258273032 -0.16141593258557668 3.6937728004465735 6.584315032145453 -0.17679860063113767 3.7137339724723533 2.1200075863030214 6.167793118937307" Properties=species:S:1:pos:R:3:force:R:3 config_type=Sb_subs virial="10.256654067091409 0.5349149757965956 0.5860198589243857 0.5349149757965956 16.564511747149282 -2.9257605731503373 0.5860198589243857 -2.9257605731503373 20.21075931991673" energy=-3.3972594900000104 pbc="T T T"
Si       1.76842701       0.98325504       0.61211203       3.40149114       2.19149750       1.49829254
Si       1.73138753       1.01711371       3.13360382      -0.07891332      -0.01268594      -0.07585004
Si       3.69823239       2.11850061       3.98997944      -0.01734727       0.26170841      -7.41139295
Si       1.87336755       3.34587234      -0.22784871      -0.28944734      -0.29722956      -0.06563990
Si       3.86090816       4.33157544       0.55261420       0.49579409      -5.46851317       1.81392797
Si       3.75216975       4.34765878       3.08650856      -0.02596503       0.12404526       0.21210317
Si       5.65872734       5.51117764       3.80997695       0.15097532       0.04619025       0.05228939
Si       3.83215209      -0.15487117      -0.17250701      -0.39958909      -0.20681911      -0.05615017
Si       5.55965954       1.00667927       0.71407931      -1.32146822       0.67958157       0.62596197
Si       5.67436402       1.06469331       3.04532147       0.07706826      -0.05698794       0.21124661
Si       7.72057786       2.08736261       3.67475118       0.14684663       0.06315518      -0.02856784
Si       5.78146460       3.34448031      -0.00936456       0.15213567       0.12281501      -0.11012581
Si       7.74778905       4.48182851       0.59042103       0.05348513       0.08004007       0.09746944
Si       7.70842608       4.46922221       2.97874130      -0.11165055      -0.05172127      -0.03551213
Si       9.42122469       5.48862863       3.84484612      -0.08636081       0.00700154       0.00772966
Sb      -0.17846585      -0.17142046      -0.00102214      -2.14705458       2.51792221       3.26421809
16
Lattice="7.656396829202084 -0.16345623612864335 -0.1784342767028601 3.7439787082559373 6.591704929493569 -0.11300816846848162 3.740303247916111 2.079956025311994 6.146967561614956" Properties=species:S:1:pos:R:3:force:R:3 config_type=Sb_subs virial="6.9477391268382345 0.436769588668672 -1.3615608530590277 0.436769588668672 9.074430053475833 -1.9370891754890849 -1.3615608530590277 -1.9370891754890849 25.59017950748529" energy=-3.8182757800000076 pbc="T T T"
Si       1.82914460       1.06475465       0.76645954       2.11767440       1.45545670       0.95341595
Si       1.90636377       1.10116915       3.04488520      -0.23060325      -0.17313715      -0.11553340
Si       3.79823245       2.09636850       3.88933470       0.55918153       0.45009663      -9.94540550
Si       1.84602612       3.18415426      -0.14475851      -0.01209324       0.01095354      -0.10610387
Si       3.85300498       4.30965423       0.80269252      -0.00857602      -2.16396045       0.74862429
Si       3.75057312       4.35741398       3.19184762      -0.09909911       0.32806034       0.02788532
Si       5.65727120       5.49236540       3.90462470       0.07414904      -0.07559436       0.13625816
Si       3.72175664      -0.04134749      -0.15287614      -0.05200472      -0.16899423      -0.12040113
Si       5.60628029       0.93397327       0.58223141      -1.32597370       0.77209750       0.56961120
Si       5.72004766       0.91878746       3.10182525       0.16938739      -0.21648196      -0.04447760
Si       7.66299362       2.15613493       3.72051662       0.02595641       0.16215313       0.08619061
Si       5.85201066       3.23459480       0.03387791       0.08572599       0.09500257      -0.18474701
Si       7.79837331       4.46416902       0.72911714       0.04588136       0.00310963       0.14266352
Si       7.79817885       4.40711107       3.07309502      -0.03539546      -0.02410312      -0.07208808
Si       9.63610734       5.41510768       3.99476038       0.00082094      -0.03033384       0.07171324
Sb      -0.06709198      -0.10663700      -0.16741809      -1.31503157      -0.42432492       7.85239428
16
Lattice="7.567967302734493 -0.10733566820809089 -0.1287860274151369 3.7141637611852447 6.553731166070269 -0.12901177904663097 3.7060056684849223 2.1374938317300964 6.17307242662973" Properties=species:S:1:pos:R:3:force:R:3 config_type=Sb_subs virial="14.331472238821306 2.1540124683441446 1.3530568141560397 2.1540124683441446 19.205158955599497 -1.6824469488136642 1.3530568141560397 -1.6824469488136642 17.437141980140204" energy=-3.1381425100000087 pbc="T T T"
Si       1.76983051       0.90034520       0.72162592       5.41555303       3.12175146       2.35455622
Si       1.80506828       0.99603009       3.16535061      -0.14458587      -0.12696897      -0.14351172
Si       3.76563565       2.18849667       3.91274915       0.05153421       0.13642860      -5.09715839
Si       1.82614843       3.34944639      -0.14232667      -0.20417381      -0.12974583      -0.08279309
Si       3.77813933       4.40956785       0.60061016       0.13394846      -6.47206155       2.12013730
Si       3.78760367       4.42984081       3.08489115      -0.01888080       0.20620753       0.06844924
Si       5.66756327       5.49633764       3.78362739       0.20359828      -0.01129565      -0.01031142
Si       3.66362160      -0.09794929      -0.16625502      -0.19528318      -0.19311377      -0.21189432
Si       5.51947004       0.96960996       0.74305957      -1.99020560       1.09874292       0.82562834
Si       5.61886506       1.12716764       3.17643117       0.16124305      -0.08986116       0.12741202
Si       7.53402788       2.21130348       3.91570059       0.01890275       0.12089510       0.07458295
Si       5.75204884       3.20393169       0.03729153       0.06998568       0.25247083      -0.15908432
Si       7.58517082       4.36857884       0.66441061       0.07484046       0.05139226       0.11561270
Si       7.51381580       4.52338031       3.11700406      -0.15273891      -0.00437216       0.01181531
Si       9.39945671       5.57609036       3.99312700      -0.07724987      -0.02421777       0.01324965
Sb      -0.10253692      -0.06728538       0.00203195      -3.34648786       2.06374818      -0.00669047
16
Lattice="7.595801485505852 -0.12402108927186228 -0.11917010730897415 3.7445152143342604 6.517454881265391 -0.13894850539865092 3.7621274704639136 2.132647241903316 6.164546176787825" Properties=species:S:1:pos:R:3:force:R:3 config_type=Sb_subs virial="11.296438909224777 -0.41907525942188606 -1.6583791813532511 -0.41907525942188606 11.508635141453016 -0.8146398023730732 -1.6583791813532511 -0.8146398023730732 26.174277355420536" energy=-3.180062559999996 pbc="T T T"
Si       1.85125273       0.88857686       0.74189671       2.98459615       1.71023187       1.37577236
Si       1.86982411       1.02698040       3.07697861      -0.21749065      -0.08068785      -0.04302048
Si       3.78795298       2.16185925       3.96971808       0.53841124       0.33333149      -9.88520400
Si       1.95700176       3.25912268      -0.06224128      -0.21432564      -0.27661850      -0.08714390
Si       3.80284165       4.26639874       0.69589147       0.02165004      -3.12352775       1.09283468
Si       3.85206433       4.28209538       3.06181439      -0.03909219       0.26200847       0.16705675
Si       5.67972555       5.40534780       3.86993494       0.08281989      -0.00635261       0.05579261
Si       3.80400082      -0.09972573      -0.19368041      -0.25022061      -0.14288776      -0.18845782
Si       5.60904109       0.95522110       0.69314084      -2.37495760       1.41979104       1.17974584
Si       5.85740447       1.02033768       3.14802278       0.14824816      -0.06973887       0.11818994
Si       7.75497337       2.09250171       3.80094266       0.05240515       0.05254038       0.11370986
Si       5.83851582       3.20629677      -0.13684078       0.04817804       0.11705617      -0.17376230
Si       7.77760781       4.39407861       0.68116954       0.04382912       0.05881652       0.11071290
Si       7.72860725       4.46293554       3.06266351      -0.05014257      -0.02963472      -0.06075907
Si       9.70043400       5.40215547       3.83293827      -0.01969624      -0.03164610       0.04365737