2
Lattice="30.0 0.0 0.0 0.0 30.0 0.0 0.0 0.0 30.0" Properties=species:S:1:pos:R:3:force:R:3 config_type=Sb_Si_dimer energy=282.32808663294776 pbc="T T T"
Si       0.00000000       0.00000000       0.00000000   -1409.19190221       0.00000000       0.00000000
Sb       0.81578947       0.00000000       0.00000000    1409.19190221      -0.00000000      -0.00000000
2
Lattice="30.0 0.0 0.0 0.0 30.0 0.0 0.0 0.0 30.0" Properties=species:S:1:pos:R:3:force:R:3 config_type=Sb_Si_dimer energy=217.9413228456965 pbc="T T T"
Si       0.00000000       0.00000000       0.00000000   -1054.78323658       0.00000000       0.00000000
Sb       0.86842105       0.00000000       0.00000000    1054.78323658      -0.00000000      -0.00000000
2
Lattice="30.0 0.0 0.0 0.0 30.0 0.0 0.0 0.0 30.0" Properties=species:S:1:pos:R:3:force:R:3 config_type=Sb_Si_dimer energy=169.73518361303218 pbc="T T T"
Si       0.00000000       0.00000000       0.00000000    -790.53808654       0.00000000       0.00000000
Sb       0.92105263       0.00000000       0.00000000     790.53808654      -0.00000000      -0.00000000
2
Lattice="30.0 0.0 0.0 0.0 30.0 0.0 0.0 0.0 30.0" Properties=species:S:1:pos:R:3:force:R:3 config_type=Sb_Si_dimer energy=133.46415971524306 pbc="T T T"
Si       0.00000000       0.00000000       0.00000000    -598.37992950       0.00000000       0.00000000
Sb       0.97368421       0.00000000       0.00000000     598.37992950      -0.00000000      -0.00000000
2
Lattice="30.0 0.0 0.0 0.0 30.0 0.0 0.0 0.0 30.0" Properties=species:S:1:pos:R:3:force:R:3 config_type=Sb_Si_dimer energy=105.80361764688176 pbc="T T T"
Si       0.00000000       0.00000000       0.00000000    -459.90728846       0.00000000       0.00000000
Sb       1.02631579       0.00000000       0.00000000     459.90728846      -0.00000000      -0.00000000
2
Lattice="30.0 0.0 0.0 0.0 30.0 0.0 0.0 0.0 30.0" Properties=species:S:1:pos:R:3:force:R:3 config_type=Sb_Si_dimer energy=84.45864376233098 pbc="T T T"
Si       0.00000000       0.00000000       0.00000000    -356.62661707       0.00000000       0.00000000
Sb       1.07894737       0.00000000       0.00000000     356.62661707      -0.00000000      -0.00000000
2
Lattice="30.0 0.0 0.0 0.0 30.0 0.0 0.0 0.0 30.0" Properties=species:S:1:pos:R:3:force:R:3 config_type=Sb_Si_dimer energy=67.72420618659618 pbc="T T T"
Si       0.00000000       0.00000000       0.00000000    -282.92427203       0.00000000       0.00000000
Sb       1.13157895       0.00000000       0.00000000     282.92427203      -0.00000000      -0.00000000
2
Lattice="30.0 0.0 0.0 0.0 30.0 0.0 0.0 0.0 30.0" Properties=species:S:1:pos:R:3:force:R:3 config_type=Sb_Si_dimer energy=54.386410199527 pbc="T T T"
Si       0.00000000       0.00000000       0.00000000    -226.58589085       0.00000000       0.00000000
Sb       1.18421053       0.00000000       0.00000000     226.58589085      -0.00000000      -0.00000000
2
Lattice="30.0 0.0 0.0 0.0 30.0 0.0 0.0 0.0 30.0" Properties=species:S:1:pos:R:3:force:R:3 config_type=Sb_Si_dimer energy=43.613931881438006 pbc="T T T"
Si       0.00000000       0.00000000       0.00000000    -184.47214201       0.00000000       0.00000000
Sb       1.23684211       0.00000000       0.00000000     184.47214201      -0.00000000      -0.00000000
2
Lattice="30.0 0.0 0.0 0.0 30.0 0.0 0.0 0.0 30.0" Properties=species:S:1:pos:R:3:force:R:3 config_type=Sb_Si_dimer energy=34.81531108973416 pbc="T T T"
Si       0.00000000       0.00000000       0.00000000    -151.31204380       0.00000000       0.00000000
Sb       1.28947368       0.00000000       0.00000000     151.31204380      -0.00000000      -0.00000000
2
Lattice="30.0 0.0 0.0 0.0 30.0 0.0 0.0 0.0 30.0" Properties=species:S:1:pos:R:3:force:R:3 config_type=Sb_Si_dimer energy=27.55285287363039 pbc="T T T"
Si       0.00000000       0.00000000       0.00000000    -125.50860282       0.00000000       0.00000000
Sb       1.34210526       0.00000000       0.00000000     125.50860282      -0.00000000      -0.00000000
2
Lattice="30.0 0.0 0.0 0.0 30.0 0.0 0.0 0.0 30.0" Properties=species:S:1:pos:R:3:force:R:3 config_type=Sb_Si_dimer energy=21.521620532829182 pbc="T T T"
Si       0.00000000       0.00000000       0.00000000    -104.45705253       0.00000000       0.00000000
Sb       1.39473684       0.00000000       0.00000000     104.45705253      -0.00000000      -0.00000000
2
Lattice="30.0 0.0 0.0 0.0 30.0 0.0 0.0 0.0 30.0" Properties=species:S:1:pos:R:3:force:R:3 config_type=Sb_Si_dimer energy=16.487979614077876 pbc="T T T"
Si       0.00000000       0.00000000       0.00000000     -87.28124089       0.00000000       0.00000000
Sb       1.44736842       0.00000000       0.00000000      87.28124089      -0.00000000      -0.00000000
2
Lattice="30.0 0.0 0.0 0.0 30.0 0.0 0.0 0.0 30.0" Properties=species:S:1:pos:R:3:force:R:3 config_type=Sb_Si_dimer energy=12.286656599999997 pbc="T T T"
Si       0.00000000       0.00000000       0.00000000     -72.81978608       0.00000000       0.00000000
Sb       1.50000000       0.00000000       0.00000000      72.81978608      -0.00000000      -0.00000000
2
Lattice="30.0 0.0 0.0 0.0 30.0 0.0 0.0 0.0 30.0" Properties=species:S:1:pos:R:3:force:R:3 config_type=Sb_Si_dimer energy=2.5802756010797174 pbc="T T T"
Si       0.00000000       0.00000000       0.00000000     -35.81938978       0.00000000       0.00000000
Sb       1.68965517       0.00000000       0.00000000      35.81938978      -0.00000000      -0.00000000
2
Lattice="30.0 0.0 0.0 0.0 30.0 0.0 0.0 0.0 30.0" Properties=species:S:1:pos:R:3:force:R:3 config_type=Sb_Si_dimer energy=-1.2418802089202825 pbc="T T T"
Si       0.00000000       0.00000000       0.00000000     -20.69038470       0.00000000      -0.00000000
Sb       1.82758621       0.00000000       0.00000000      20.69038470      -0.00000000       0.00000000
2
Lattice="30.0 0.0 0.0 0.0 30.0 0.0 0.0 0.0 30.0" Properties=species:S:1:pos:R:3:force:R:3 config_type=Sb_Si_dimer energy=-3.3715634989202825 pbc="T T T"
Si       0.00000000       0.00000000       0.00000000     -10.91766022       0.00000000       0.00000000
Sb       1.96551724       0.00000000       0.00000000      10.91766022      -0.00000000      -0.00000000
2
Lattice="30.0 0.0 0.0 0.0 30.0 0.0 0.0 0.0 30.0" Properties=species:S:1:pos:R:3:force:R:3 config_type=Sb_Si_dimer energy=-4.417827788920283 pbc="T T T"
Si       0.00000000       0.00000000       0.00000000      -4.81228137      -0.00000000       0.00000000
Sb       2.10344828       0.00000000       0.00000000       4.81228137       0.00000000      -0.00000000
2
Lattice="30.0 0.0 0.0 0.0 30.0 0.0 0.0 0.0 30.0" Properties=species:S:1:pos:R:3:force:R:3 config_type=Sb_Si_dimer energy=-4.872985498920283 pbc="T T T"
Si       0.00000000       0.00000000       0.00000000      -2.03645314       0.00000000      -0.00000000
Sb       2.24137931       0.00000000       0.00000000       2.03645314      -0.00000000       0.00000000
2
Lattice="30.0 0.0 0.0 0.0 30.0 0.0 0.0 0.0 30.0" Properties=species:S:1:pos:R:3:force:R:3 config_type=Sb_Si_dimer energy=-5.027185698920283 pbc="T T T"
Si       0.00000000       0.00000000       0.00000000      -0.32401923       0.00000000       0.00000000
Sb       2.37931034       0.00000000       0.00000000       0.32401923      -0.00000000      -0.00000000
2
Lattice="30.0 0.0 0.0 0.0 30.0 0.0 0.0 0.0 30.0" Properties=species:S:1:pos:R:3:force:R:3 config_type=Sb_Si_dimer energy=-4.966845018920282 pbc="T T T"
Si       0.00000000       0.00000000       0.00000000       1.17226848      -0.00000000      -0.00000000
Sb       2.51724138       0.00000000       0.00000000      -1.17226848       0.00000000       0.00000000
2
Lattice="30.0 0.0 0.0 0.0 30.0 0.0 0.0 0.0 30.0" Properties=species:S:1:pos:R:3:force:R:3 config_type=Sb_Si_dimer energy=-4.733037528920282 pbc="T T T"
Si       0.00000000       0.00000000       0.00000000       2.12284602      -0.00000000       0.00000000
Sb       2.65517241       0.00000000       0.00000000      -2.12284602       0.00000000      -0.00000000
2
Lattice="30.0 0.0 0.0 0.0 30.0 0.0 0.0 0.0 30.0" Properties=species:S:1:pos:R:3:force:R:3 config_type=Sb_Si_dimer energy=-4.401904248920283 pbc="T T T"
Si       0.00000000       0.00000000       0.00000000       2.61758207       0.00000000      -0.00000000
Sb       2.79310345       0.00000000       0.00000000      -2.61758207      -0.00000000       0.00000000
2
Lattice="30.0 0.0 0.0 0.0 30.0 0.0 0.0 0.0 30.0" Properties=species:S:1:pos:R:3:force:R:3 config_type=Sb_Si_dimer energy=-4.024086578920283 pbc="T T T"
Si       0.00000000       0.00000000       0.00000000       2.82200228      -0.00000000      -0.00000000
Sb       2.93103448       0.00000000       0.00000000      -2.82200228       0.00000000       0.00000000
2
Lattice="10.0 0.0 0.0 0.0 10.0 0.0 0.0 0.0 10.0" Properties=species:S:1:pos:R:3:force:R:3 config_type=Sb_Si_dimer energy=-3.8346552799999998 pbc="T T T"
Si       0.00000000       0.00000000       0.00000000       2.83922502       0.00000000       0.00000000
Sb       3.06896552       0.00000000       0.00000000      -2.83922502       0.00000000      -0.00000000
2
Lattice="10.0 0.0 0.0 0.0 10.0 0.0 0.0 0.0 10.0" Properties=species:S:1:pos:R:3:force:R:3 config_type=Sb_Si_dimer energy=-3.44839003 pbc="T T T"
Si       0.00000000       0.00000000       0.00000000       2.74714302       0.00000000      -0.00000000
Sb       3.20689655       0.00000000       0.00000000      -2.74714302      -0.00000000       0.00000000
2
Lattice="10.0 0.0 0.0 0.0 10.0 0.0 0.0 0.0 10.0" Properties=species:S:1:pos:R:3:force:R:3 config_type=Sb_Si_dimer energy=-3.07980406 pbc="T T T"
Si       0.00000000       0.00000000       0.00000000       2.58908410       0.00000000       0.00000000
Sb       3.34482759       0.00000000       0.00000000      -2.58908410       0.00000000      -0.00000000
2
Lattice="10.0 0.0 0.0 0.0 10.0 0.0 0.0 0.0 10.0" Properties=species:S:1:pos:R:3:force:R:3 config_type=Sb_Si_dimer energy=-2.73580535 pbc="T T T"
Si       0.00000000       0.00000000       0.00000000       2.39468301       0.00000000      -0.00000000
Sb       3.48275862       0.00000000       0.00000000      -2.39468301       0.00000000       0.00000000
2
Lattice="10.0 0.0 0.0 0.0 10.0 0.0 0.0 0.0 10.0" Properties=species:S:1:pos:R:3:force:R:3 config_type=Sb_Si_dimer energy=-2.41988101 pbc="T T T"
Si       0.00000000       0.00000000       0.00000000       2.18446143       0.00000000      -0.00000000
Sb       3.62068966       0.00000000       0.00000000      -2.18446143      -0.00000000       0.00000000
2
Lattice="10.0 0.0 0.0 0.0 10.0 0.0 0.0 0.0 10.0" Properties=species:S:1:pos:R:3:force:R:3 config_type=Sb_Si_dimer energy=-2.13333899 pbc="T T T"
Si       0.00000000       0.00000000       0.00000000       1.97052792       0.00000000       0.00000000
Sb       3.75862069       0.00000000       0.00000000      -1.97052792      -0.00000000      -0.00000000
2
Lattice="10.0 0.0 0.0 0.0 10.0 0.0 0.0 0.0 10.0" Properties=species:S:1:pos:R:3:force:R:3 config_type=Sb_Si_dimer energy=-2.13333899 pbc="T T T"
Si       0.00000000       0.00000000       0.00000000       1.97052792       0.00000000       0.00000000
Sb       3.75862069       0.00000000       0.00000000      -1.97052792      -0.00000000      -0.00000000
2
Lattice="10.0 0.0 0.0 0.0 10.0 0.0 0.0 0.0 10.0" Properties=species:S:1:pos:R:3:force:R:3 config_type=Sb_Si_dimer energy=-1.87612209 pbc="T T T"
Si       0.00000000       0.00000000       0.00000000       1.76026413       0.00000000       0.00000000
Sb       3.89655172       0.00000000       0.00000000      -1.76026413      -0.00000000      -0.00000000
2
Lattice="10.0 0.0 0.0 0.0 10.0 0.0 0.0 0.0 10.0" Properties=species:S:1:pos:R:3:force:R:3 config_type=Sb_Si_dimer energy=-1.6474000599999998 pbc="T T T"
Si       0.00000000       0.00000000       0.00000000       1.55772496       0.00000000       0.00000000
Sb       4.03448276       0.00000000       0.00000000      -1.55772496       0.00000000      -0.00000000
2
Lattice="10.0 0.0 0.0 0.0 10.0 0.0 0.0 0.0 10.0" Properties=species:S:1:pos:R:3:force:R:3 config_type=Sb_Si_dimer energy=-1.44602045 pbc="T T T"
Si       0.00000000       0.00000000       0.00000000       1.36384669       0.00000000      -0.00000000
Sb       4.17241379       0.00000000       0.00000000      -1.36384669      -0.00000000       0.00000000
2
Lattice="10.0 0.0 0.0 0.0 10.0 0.0 0.0 0.0 10.0" Properties=species:S:1:pos:R:3:force:R:3 config_type=Sb_Si_dimer energy=-1.2708712199999999 pbc="T T T"
Si       0.00000000       0.00000000       0.00000000       1.17683863       0.00000000       0.00000000
Sb       4.31034483       0.00000000       0.00000000      -1.17683863       0.00000000      -0.00000000
2
Lattice="10.0 0.0 0.0 0.0 10.0 0.0 0.0 0.0 10.0" Properties=species:S:1:pos:R:3:force:R:3 config_type=Sb_Si_dimer energy=-1.12125751 pbc="T T T"
Si       0.00000000       0.00000000       0.00000000       0.99255324       0.00000000      -0.00000000
Sb       4.44827586       0.00000000       0.00000000      -0.99255324       0.00000000       0.00000000
2
Lattice="10.0 0.0 0.0 0.0 10.0 0.0 0.0 0.0 10.0" Properties=species:S:1:pos:R:3:force:R:3 config_type=Sb_Si_dimer energy=-0.9973908800000001 pbc="T T T"
Si       0.00000000       0.00000000       0.00000000       0.80153733       0.00000000       0.00000000
Sb       4.58620690       0.00000000       0.00000000      -0.80153733      -0.00000000      -0.00000000
2
Lattice="10.0 0.0 0.0 0.0 10.0 0.0 0.0 0.0 10.0" Properties=species:S:1:pos:R:3:force:R:3 config_type=Sb_Si_dimer energy=-0.90121194 pbc="T T T"
Si       0.00000000       0.00000000       0.00000000       0.58719518       0.00000000       0.00000000
Sb       4.72413793       0.00000000       0.00000000      -0.58719518      -0.00000000      -0.00000000
2
Lattice="10.0 0.0 0.0 0.0 10.0 0.0 0.0 0.0 10.0" Properties=species:S:1:pos:R:3:force:R:3 config_type=Sb_Si_dimer energy=-0.8377653500000001 pbc="T T T"
Si       0.00000000       0.00000000       0.00000000       0.32193808       0.00000000       0.00000000
Sb       4.86206897       0.00000000       0.00000000      -0.32193808       0.00000000      -0.00000000
2
Lattice="10.0 0.0 0.0 0.0 10.0 0.0 0.0 0.0 10.0" Properties=species:S:1:pos:R:3:force:R:3 config_type=Sb_Si_dimer energy=-0.05859601 pbc="T T T"
Si       0.00000000       0.00000000       0.00000000      -0.00000000       0.00000000      -0.00000000
Sb       5.00000000       0.00000000       0.00000000       0.00000000      -0.00000000       0.00000000
2
Lattice="10.0 0.0 0.0 0.0 10.0 0.0 0.0 0.0 10.0" Properties=species:S:1:pos:R:3:force:R:3 config_type=Sb_Si_dimer energy=-0.81522383 pbc="T T T"
Si       0.00000000       0.00000000       0.00000000       0.02432512       0.00000000      -0.00000000
Sb       4.99000000       0.00000000       0.00000000      -0.02432512      -0.00000000       0.00000000
2
Lattice="30.0 0.0 0.0 0.0 30.0 0.0 0.0 0.0 30.0" Properties=species:S:1:pos:R:3:force:R:3 config_type=Sb_Si_dimer energy=282.32808663294776 pbc="T T T"
Si       0.00000000       0.00000000       0.00000000   -1409.19190221       0.00000000       0.00000000
Sb       0.81578947       0.00000000       0.00000000    1409.19190221      -0.00000000      -0.00000000
2
Lattice="30.0 0.0 0.0 0.0 30.0 0.0 0.0 0.0 30.0" Properties=species:S:1:pos:R:3:force:R:3 config_type=Sb_Si_dimer energy=217.9413228456965 pbc="T T T"
Si       0.00000000       0.00000000       0.00000000   -1054.78323658       0.00000000       0.00000000
Sb       0.86842105       0.00000000       0.00000000    1054.78323658      -0.00000000      -0.00000000
2
Lattice="30.0 0.0 0.0 0.0 30.0 0.0 0.0 0.0 30.0" Properties=species:S:1:pos:R:3:force:R:3 config_type=Sb_Si_dimer energy=169.73518361303218 pbc="T T T"
Si       0.00000000       0.00000000       0.00000000    -790.53808654       0.00000000       0.00000000
Sb       0.92105263       0.00000000       0.00000000     790.53808654      -0.00000000      -0.00000000
2
Lattice="30.0 0.0 0.0 0.0 30.0 0.0 0.0 0.0 30.0" Properties=species:S:1:pos:R:3:force:R:3 config_type=Sb_Si_dimer energy=133.46415971524306 pbc="T T T"
Si       0.00000000       0.00000000       0.00000000    -598.37992950       0.00000000       0.00000000
Sb       0.97368421       0.00000000       0.00000000     598.37992950      -0.00000000      -0.00000000
2
Lattice="30.0 0.0 0.0 0.0 30.0 0.0 0.0 0.0 30.0" Properties=species:S:1:pos:R:3:force:R:3 config_type=Sb_Si_dimer energy=105.80361764688176 pbc="T T T"
Si       0.00000000       0.00000000       0.00000000    -459.90728846       0.00000000       0.00000000
Sb       1.02631579       0.00000000       0.00000000     459.90728846      -0.00000000      -0.00000000
2
Lattice="30.0 0.0 0.0 0.0 30.0 0.0 0.0 0.0 30.0" Properties=species:S:1:pos:R:3:force:R:3 config_type=Sb_Si_dimer energy=84.45864376233098 pbc="T T T"
Si       0.00000000       0.00000000       0.00000000    -356.62661707       0.00000000       0.00000000
Sb       1.07894737       0.00000000       0.00000000     356.62661707      -0.00000000      -0.00000000
2
Lattice="30.0 0.0 0.0 0.0 30.0 0.0 0.0 0.0 30.0" Properties=species:S:1:pos:R:3:force:R:3 config_type=Sb_Si_dimer energy=67.72420618659618 pbc="T T T"
Si       0.00000000       0.00000000       0.00000000    -282.92427203       0.00000000       0.00000000
Sb       1.13157895       0.00000000       0.00000000     282.92427203      -0.00000000      -0.00000000
2
Lattice="30.0 0.0 0.0 0.0 30.0 0.0 0.0 0.0 30.0" Properties=species:S:1:pos:R:3:force:R:3 config_type=Sb_Si_dimer energy=54.386410199527 pbc="T T T"
Si       0.00000000       0.00000000       0.00000000    -226.58589085       0.00000000       0.00000000
Sb       1.18421053       0.00000000       0.00000000     226.58589085      -0.00000000      -0.00000000
2
Lattice="30.0 0.0 0.0 0.0 30.0 0.0 0.0 0.0 30.0" Properties=species:S:1:pos:R:3:force:R:3 config_type=Sb_Si_dimer energy=43.613931881438006 pbc="T T T"
Si       0.00000000       0.00000000       0.00000000    -184.47214201       0.00000000       0.00000000
Sb       1.23684211       0.00000000       0.00000000     184.47214201      -0.00000000      -0.00000000
2
Lattice="30.0 0.0 0.0 0.0 30.0 0.0 0.0 0.0 30.0" Properties=species:S:1:pos:R:3:force:R:3 config_type=Sb_Si_dimer energy=34.81531108973416 pbc="T T T"
Si       0.00000000       0.00000000       0.00000000    -151.31204380       0.00000000       0.00000000
Sb       1.28947368       0.00000000       0.00000000     151.31204380      -0.00000000      -0.00000000
2
Lattice="30.0 0.0 0.0 0.0 30.0 0.0 0.0 0.0 30.0" Properties=species:S:1:pos:R:3:force:R:3 config_type=Sb_Si_dimer energy=27.55285287363039 pbc="T T T"
Si       0.00000000       0.00000000       0.00000000    -125.50860282       0.00000000       0.00000000
Sb       1.34210526       0.00000000       0.00000000     125.50860282      -0.00000000      -0.00000000
2
Lattice="30.0 0.0 0.0 0.0 30.0 0.0 0.0 0.0 30.0" Properties=species:S:1:pos:R:3:force:R:3 config_type=Sb_Si_dimer energy=21.521620532829182 pbc="T T T"
Si       0.00000000       0.00000000       0.00000000    -104.45705253       0.00000000       0.00000000
Sb       1.39473684       0.00000000       0.00000000     104.45705253      -0.00000000      -0.00000000
2
Lattice="30.0 0.0 0.0 0.0 30.0 0.0 0.0 0.0 30.0" Properties=species:S:1:pos:R:3:force:R:3 config_type=Sb_Si_dimer energy=16.487979614077876 pbc="T T T"
Si       0.00000000       0.00000000       0.00000000     -87.28124089       0.00000000       0.00000000
Sb       1.44736842       0.00000000       0.00000000      87.28124089      -0.00000000      -0.00000000
2
Lattice="30.0 0.0 0.0 0.0 30.0 0.0 0.0 0.0 30.0" Properties=species:S:1:pos:R:3:force:R:3 config_type=Sb_Si_dimer energy=12.286656599999997 pbc="T T T"
Si       0.00000000       0.00000000       0.00000000     -72.81978608       0.00000000       0.00000000
Sb       1.50000000       0.00000000       0.00000000      72.81978608      -0.00000000      -0.00000000
2
Lattice="30.0 0.0 0.0 0.0 30.0 0.0 0.0 0.0 30.0" Properties=species:S:1:pos:R:3:force:R:3 config_type=Sb_Si_dimer energy=2.5802756010797174 pbc="T T T"
Si       0.00000000       0.00000000       0.00000000     -35.81938978       0.00000000       0.00000000
Sb       1.68965517       0.00000000       0.00000000      35.81938978      -0.00000000      -0.00000000
2
Lattice="30.0 0.0 0.0 0.0 30.0 0.0 0.0 0.0 30.0" Properties=species:S:1:pos:R:3:force:R:3 config_type=Sb_Si_dimer energy=-1.2418802089202825 pbc="T T T"
Si       0.00000000       0.00000000       0.00000000     -20.69038470       0.00000000      -0.00000000
Sb       1.82758621       0.00000000       0.00000000      20.69038470      -0.00000000       0.00000000
2
Lattice="30.0 0.0 0.0 0.0 30.0 0.0 0.0 0.0 30.0" Properties=species:S:1:pos:R:3:force:R:3 config_type=Sb_Si_dimer energy=-3.3715634989202825 pbc="T T T"
Si       0.00000000       0.00000000       0.00000000     -10.91766022       0.00000000       0.00000000
Sb       1.96551724       0.00000000       0.00000000      10.91766022      -0.00000000      -0.00000000
2
Lattice="30.0 0.0 0.0 0.0 30.0 0.0 0.0 0.0 30.0" Properties=species:S:1:pos:R:3:force:R:3 config_type=Sb_Si_dimer energy=-4.417827788920283 pbc="T T T"
Si       0.00000000       0.00000000       0.00000000      -4.81228137      -0.00000000       0.00000000
Sb       2.10344828       0.00000000       0.00000000       4.81228137       0.00000000      -0.00000000
2
Lattice="30.0 0.0 0.0 0.0 30.0 0.0 0.0 0.0 30.0" Properties=species:S:1:pos:R:3:force:R:3 config_type=Sb_Si_dimer energy=-4.872985498920283 pbc="T T T"
Si       0.00000000       0.00000000       0.00000000      -2.03645314       0.00000000      -0.00000000
Sb       2.24137931       0.00000000       0.00000000       2.03645314      -0.00000000       0.00000000
2
Lattice="30.0 0.0 0.0 0.0 30.0 0.0 0.0 0.0 30.0" Properties=species:S:1:pos:R:3:force:R:3 config_type=Sb_Si_dimer energy=-5.027185698920283 pbc="T T T"
Si       0.00000000       0.00000000       0.00000000      -0.32401923       0.00000000       0.00000000
Sb       2.37931034       0.00000000       0.00000000       0.32401923      -0.00000000      -0.00000000
2
Lattice="30.0 0.0 0.0 0.0 30.0 0.0 0.0 0.0 30.0" Properties=species:S:1:pos:R:3:force:R:3 config_type=Sb_Si_dimer energy=-4.966845018920282 pbc="T T T"
Si       0.00000000       0.00000000       0.00000000       1.17226848      -0.00000000      -0.00000000
Sb       2.51724138       0.00000000       0.00000000      -1.17226848       0.00000000       0.00000000
2
Lattice="30.0 0.0 0.0 0.0 30.0 0.0 0.0 0.0 30.0" Properties=species:S:1:pos:R:3:force:R:3 config_type=Sb_Si_dimer energy=-4.733037528920282 pbc="T T T"
Si       0.00000000       0.00000000       0.00000000       2.12284602      -0.00000000       0.00000000
Sb       2.65517241       0.00000000       0.00000000      -2.12284602       0.00000000      -0.00000000
2
Lattice="30.0 0.0 0.0 0.0 30.0 0.0 0.0 0.0 30.0" Properties=species:S:1:pos:R:3:force:R:3 config_type=Sb_Si_dimer energy=-4.401904248920283 pbc="T T T"
Si       0.00000000       0.00000000       0.00000000       2.61758207       0.00000000      -0.00000000
Sb       2.79310345       0.00000000       0.00000000      -2.61758207      -0.00000000       0.00000000
2
Lattice="30.0 0.0 0.0 0.0 30.0 0.0 0.0 0.0 30.0" Properties=species:S:1:pos:R:3:force:R:3 config_type=Sb_Si_dimer energy=-4.024086578920283 pbc="T T T"
Si       0.00000000       0.00000000       0.00000000       2.82200228      -0.00000000      -0.00000000
Sb       2.93103448       0.00000000       0.00000000      -2.82200228       0.00000000       0.00000000
2
Lattice="10.0 0.0 0.0 0.0 10.0 0.0 0.0 0.0 10.0" Properties=species:S:1:pos:R:3:force:R:3 config_type=Sb_Si_dimer energy=-3.8346552799999998 pbc="T T T"
Si       0.00000000       0.00000000       0.00000000       2.83922502       0.00000000       0.00000000
Sb       3.06896552       0.00000000       0.00000000      -2.83922502       0.00000000      -0.00000000
2
Lattice="10.0 0.0 0.0 0.0 10.0 0.0 0.0 0.0 10.0" Properties=species:S:1:pos:R:3:force:R:3 config_type=Sb_Si_dimer energy=-3.44839003 pbc="T T T"
Si       0.00000000       0.00000000       0.00000000       2.74714302       0.00000000      -0.00000000
Sb       3.20689655       0.00000000       0.00000000      -2.74714302      -0.00000000       0.00000000
2
Lattice="10.0 0.0 0.0 0.0 10.0 0.0 0.0 0.0 10.0" Properties=species:S:1:pos:R:3:force:R:3 config_type=Sb_Si_dimer energy=-3.07980406 pbc="T T T"
Si       0.00000000       0.00000000       0.00000000       2.58908410       0.00000000       0.00000000
Sb       3.34482759       0.00000000       0.00000000      -2.58908410       0.00000000      -0.00000000
2
Lattice="10.0 0.0 0.0 0.0 10.0 0.0 0.0 0.0 10.0" Properties=species:S:1:pos:R:3:force:R:3 config_type=Sb_Si_dimer energy=-2.73580535 pbc="T T T"
Si       0.00000000       0.00000000       0.00000000       2.39468301       0.00000000      -0.00000000
Sb       3.48275862       0.00000000       0.00000000      -2.39468301       0.00000000       0.00000000
2
Lattice="10.0 0.0 0.0 0.0 10.0 0.0 0.0 0.0 10.0" Properties=species:S:1:pos:R:3:force:R:3 config_type=Sb_Si_dimer energy=-2.41988101 pbc="T T T"
Si       0.00000000       0.00000000       0.00000000       2.18446143       0.00000000      -0.00000000
Sb       3.62068966       0.00000000       0.00000000      -2.18446143      -0.00000000       0.00000000
2
Lattice="10.0 0.0 0.0 0.0 10.0 0.0 0.0 0.0 10.0" Properties=species:S:1:pos:R:3:force:R:3 config_type=Sb_Si_dimer energy=-2.13333899 pbc="T T T"
Si       0.00000000       0.00000000       0.00000000       1.97052792       0.00000000       0.00000000
Sb       3.75862069       0.00000000       0.00000000      -1.97052792      -0.00000000      -0.00000000
2
Lattice="10.0 0.0 0.0 0.0 10.0 0.0 0.0 0.0 10.0" Properties=species:S:1:pos:R:3:force:R:3 config_type=Sb_Si_dimer energy=-2.13333899 pbc="T T T"
Si       0.00000000       0.00000000       0.00000000       1.97052792       0.00000000       0.00000000
Sb       3.75862069       0.00000000       0.00000000      -1.97052792      -0.00000000      -0.00000000
2
Lattice="10.0 0.0 0.0 0.0 10.0 0.0 0.0 0.0 10.0" Properties=species:S:1:pos:R:3:force:R:3 config_type=Sb_Si_dimer energy=-1.87612209 pbc="T T T"
Si       0.00000000       0.00000000       0.00000000       1.76026413       0.00000000       0.00000000
Sb       3.89655172       0.00000000       0.00000000      -1.76026413      -0.00000000      -0.00000000
2
Lattice="10.0 0.0 0.0 0.0 10.0 0.0 0.0 0.0 10.0" Properties=species:S:1:pos:R:3:force:R:3 config_type=Sb_Si_dimer energy=-1.6474000599999998 pbc="T T T"
Si       0.00000000       0.00000000       0.00000000       1.55772496       0.00000000       0.00000000
Sb       4.03448276       0.00000000       0.00000000      -1.55772496       0.00000000      -0.00000000
2
Lattice="10.0 0.0 0.0 0.0 10.0 0.0 0.0 0.0 10.0" Properties=species:S:1:pos:R:3:force:R:3 config_type=Sb_Si_dimer energy=-1.44602045 pbc="T T T"
Si       0.00000000       0.00000000       0.00000000       1.36384669       0.00000000      -0.00000000
Sb       4.17241379       0.00000000       0.00000000      -1.36384669      -0.00000000       0.00000000
2
Lattice="10.0 0.0 0.0 0.0 10.0 0.0 0.0 0.0 10.0" Properties=species:S:1:pos:R:3:force:R:3 config_type=Sb_Si_dimer energy=-1.2708712199999999 pbc="T T T"
Si       0.00000000       0.00000000       0.00000000       1.17683863       0.00000000       0.00000000
Sb       4.31034483       0.00000000       0.00000000      -1.17683863       0.00000000      -0.00000000
2
Lattice="10.0 0.0 0.0 0.0 10.0 0.0 0.0 0.0 10.0" Properties=species:S:1:pos:R:3:force:R:3 config_type=Sb_Si_dimer energy=-1.12125751 pbc="T T T"
Si       0.00000000       0.00000000       0.00000000       0.99255324       0.00000000      -0.00000000
Sb       4.44827586       0.00000000       0.00000000      -0.99255324       0.00000000       0.00000000
2
Lattice="10.0 0.0 0.0 0.0 10.0 0.0 0.0 0.0 10.0" Properties=species:S:1:pos:R:3:force:R:3 config_type=Sb_Si_dimer energy=-0.9973908800000001 pbc="T T T"
Si       0.00000000       0.00000000       0.00000000       0.80153733       0.00000000       0.00000000
Sb       4.58620690       0.00000000       0.00000000      -0.80153733      -0.00000000      -0.00000000
2
Lattice="10.0 0.0 0.0 0.0 10.0 0.0 0.0 0.0 10.0" Properties=species:S:1:pos:R:3:force:R:3 config_type=Sb_Si_dimer energy=-0.90121194 pbc="T T T"
Si       0.00000000       0.00000000       0.00000000       0.58719518       0.00000000       0.00000000
Sb       4.72413793       0.00000000       0.00000000      -0.58719518      -0.00000000      -0.00000000
2
Lattice="10.0 0.0 0.0 0.0 10.0 0.0 0.0 0.0 10.0" Properties=species:S:1:pos:R:3:force:R:3 config_type=Sb_Si_dimer energy=-0.8377653500000001 pbc="T T T"
Si       0.00000000       0.00000000       0.00000000       0.32193808       0.00000000       0.00000000
Sb       4.86206897       0.00000000       0.00000000      -0.32193808       0.00000000      -0.00000000
2
Lattice="10.0 0.0 0.0 0.0 10.0 0.0 0.0 0.0 10.0" Properties=species:S:1:pos:R:3:force:R:3 config_type=Sb_Si_dimer energy=-0.05859601 pbc="T T T"
Si       0.00000000       0.00000000       0.00000000      -0.00000000       0.00000000      -0.00000000
Sb       5.00000000       0.00000000       0.00000000       0.00000000      -0.00000000       0.00000000
2
Lattice="10.0 0.0 0.0 0.0 10.0 0.0 0.0 0.0 10.0" Properties=species:S:1:pos:R:3:force:R:3 config_type=Sb_Si_dimer energy=-0.81522383 pbc="T T T"
Si       0.00000000       0.00000000       0.00000000       0.02432512       0.00000000      -0.00000000
Sb       4.99000000       0.00000000       0.00000000      -0.02432512      -0.00000000       0.00000000
