 16
 config_type=Sb_subs virial="13.34495003       2.11622406       0.84428744       2.11622406      11.63489952       0.52299321       0.84428744       0.52299321      10.22840020" energy=-4.5582657964379010 cutoff=5.00000000 nneightol=1.20000000 pbc="T T T" Lattice="7.56659420      -0.15011368      -0.18512703       3.77015621       6.60021390      -0.11594206       3.73284512       2.14109331       6.14396549" Properties=species:S:1:pos:R:3:force:R:3:Z:I:1:map_shift:I:3:n_neighb:I:1:local_energy:R:1:local_virial:R:9
 Si              1.83336795      0.98699720      0.72866749      4.66016196      2.61834162      1.77956136      14       0       0       0      32     -6.22970105     15.40117824      7.43545753      4.41880997      6.71663806      7.38286212      2.62191679      4.74526266      3.07625897      5.28907275
 Si              1.75370148      0.90982832      3.06023546     -0.11121016     -0.10612322      0.06762457      14       0       0       0      33     -1.34931969      2.12017153      1.33349702      4.01763439      1.28872433      0.26841333      1.96884803      4.36064027      2.44189683      7.80858022
 Si              3.54374386      2.11215988      3.75420100     -0.11528252     -0.00332553     -2.87761193      14       0       0      -1      32     -6.16460177      3.44792624      0.26119032      0.80831863      0.26790841      3.99393434      0.36235075      1.74166202      0.09695069     23.04816389
 Si              1.81221629      3.29739286     -0.12293601     -0.22923624     -0.08070242     -0.18872334      14       0      -1       0      33     -1.07678995      2.08715617      4.25166884      0.02731459      5.10231595      8.68972942     -0.03401090     -0.31653903     -0.67661038     -0.47628002
 Si              3.66790186      4.24613881      0.64654429     -0.04486113     -2.60357146      0.83059772      14       0      -1       0      34     -6.10297036      4.22309750      0.28068524     -0.25160662      0.92406215     19.80063717     -5.11111492     -0.47120497     -5.31740632      5.80424211
 Si              3.55152580      4.29310599      2.89989548     -0.04196483      0.02624939      0.30432357      14       0       0       0      33     -0.63055681     -0.30775438      0.03946897      0.33962652      0.59132220      3.02432225     -4.38984728      0.09167380     -3.71588608      5.28116311
 Si              5.58505036      5.35055963      3.65131465      0.11066574      0.01543264      0.06660374      14       0      -1      -1      33     -0.15313847      0.61392539      0.28329079      0.50683351      0.33945601      1.11300966     -0.36944811      0.56647055     -0.52259913      1.52632195
 Si              3.61773003     -0.21409147     -0.28623407     -0.11269370     -0.03125047     -0.10287501      14       0       0       0      33     -1.34056016      9.64162980     -0.89137230     -0.51768321     -0.68351378     -0.16779026      0.10677063     -0.62890115      0.26111666     -0.28235314
 Si              5.53203686      0.82162471      0.58467175     -2.52072667      1.32834280      1.00448736      14      -1       0       0      33     -6.22288315     17.23563167     -6.69446196     -4.79658670     -7.57757714      6.58175623      3.15936882     -5.74478937      3.30241568      5.47623028
 Si              5.46665956      0.97736994      2.92502568      0.17534272     -0.06997345      0.02431297      14       0       0       0      33     -0.69750903      1.83681041     -0.96722456     -2.49242804     -0.91193013      0.13782317      1.63594330     -2.55767397      1.89538136      4.85274069
 Si              7.36702764      1.94007057      3.58595118      0.01569840      0.08834585     -0.09973869      14      -1       0      -1      34     -0.16544739      1.09158867      0.12598075      0.05963962      0.01962643      0.46231386      0.63383569     -0.10196138      0.79875137      1.73572150
 Si              5.56198415      3.17876570     -0.11002537      0.24355450     -0.06376856     -0.11315916      14       0       0       0      33     -0.74521270      1.76639392     -3.14293151     -0.14819374     -3.59450824      6.35710869      0.05490540      0.07260973     -0.42796479     -0.29303131
 Si              7.59547381      4.27290105      0.52064838      0.03587364      0.06485701      0.08873844      14      -1      -1       0      32     -0.15077445      2.15690284      0.54973267     -0.38782220      0.56092138      1.54191194     -0.19648850     -0.23742306     -0.11183125      0.06617483
 Si              7.45474785      4.22438000      2.76691083      0.04517240      0.01053127     -0.02538015      14      -1       0       0      33      0.00000000      0.00550212      0.08592349      0.02951418      0.05963970     -0.00989702      0.05889299      0.07743853      0.07617922      0.02136331
 Si              9.31198652      5.17493723      3.66213693     -0.02833590     -0.25504554      0.06335549      14      -1      -1      -1      32     -0.14374033      0.64833839     -0.42703469     -0.22264715     -0.45957156      1.28231168     -0.26215834     -0.23790149     -0.20265081      0.97030545
 Sb             -0.02240905     -0.04515736      0.01067859     -2.08215822     -0.93833992     -0.82211696      51       0       0       0      33     26.61493951    -48.62354847     -0.40764653     -0.54643632     -0.52728972    -48.82354704      0.28322887     -0.51507570     -0.45100881    -50.60001542
 16
 config_type=Sb_subs virial="12.28360352      -2.46682004      -2.90427859      -2.46682004      12.22824575       1.01920534      -2.90427859       1.01920534      22.70873295" energy=-3.5892019991100952 cutoff=5.00000000 nneightol=1.20000000 pbc="T T T" Lattice="7.63935612      -0.10612354      -0.19303872       3.77480665       6.55011846      -0.13261826       3.75212229       2.08552331       6.14491794" Properties=species:S:1:pos:R:3:force:R:3:Z:I:1:map_shift:I:3:n_neighb:I:1:local_energy:R:1:local_virial:R:9
 Si              1.96366513      1.02062927      0.65621177      2.63468381      1.50298707      1.06695669      14       0       0       0      31     -6.40639305     18.90935943      6.77244322      3.21042578      8.42806764      7.14390296      2.08950176      4.59857000      2.27811386      3.32778706
 Si              1.82685789      0.97290856      3.09863989     -0.00895653      0.00519756      0.25324536      14       0       0      -1      32     -1.56119275      3.68919387      1.49675504      5.19566736      1.90219679      0.75591729      2.77890754      3.83449757      1.63019529      6.46467932
 Si              3.70731511      2.03732328      3.98958653      0.08954059     -0.20483038     -7.82376901      14       0       0      -1      32     -6.68861401      1.44307032     -0.15575285      0.79481688     -0.12695619      1.49242094     -1.25044028     -0.18578809     -0.10475310     30.58503435
 Si              1.95004200      3.25992159     -0.08192068     -0.25562835      0.04114324     -0.04621006      14       0       0       0      32     -0.95380978      2.77158811      4.57144467     -0.57659034      3.36286856      7.09007647     -0.95590654     -0.03743393     -0.40191384      0.29245855
 Si              3.83815007      4.27216406      0.58118562      0.09678959     -2.76983137      0.81728379      14       0      -1       0      32     -6.41828776      3.25087206     -1.70941311      0.30802647     -2.08577633     20.96881887     -5.02942246      0.52367472     -6.18642065      3.48218407
 Si              3.83388581      4.25957638      3.08997427      0.11163372      0.19268797      0.00059362      14       0       0      -1      32     -1.26006099     -0.34725028      0.01748232      0.39514684     -0.03583736      4.01981463     -4.95240399     -0.04004501     -5.08993709      6.70273488
 Si              5.76386110      5.48245407      3.92586187      0.26559176      0.00642979      0.10770845      14       0      -1      -1      32     -0.37896069      1.06752239      2.26629045      1.32132776      1.77791203      3.29537876      1.35589421      0.99938752      1.46327146      1.72829625
 Si              3.76905963     -0.08062600     -0.23401088     -0.11124568     -0.17185638     -0.11515930      14      -1       0       0      32     -0.98108909      7.54189648     -0.67800189      0.45162534      1.20677877      0.06081122     -0.01293716      0.18250891      0.15900029      0.20249278
 Si              5.71727340      0.91173669      0.73160098     -4.49690841      2.56126025      2.09588176      14      -1       0       0      32     -6.50658149     14.10474174     -7.12714898     -6.27085758     -7.94279021      6.37748854      4.17671096     -6.12396243      3.67806461      6.22059773
 Si              5.84931672      0.91900200      3.14915772     -0.21372489      0.03744428      0.20606702      14      -1       0      -1      32     -1.28280963      2.60581056     -1.70850542     -4.31085691     -1.67499014      0.66953015      3.10286422     -3.55724405      2.52716875      6.27607969
 Si              7.63334004      2.11216605      3.80321331      0.11610028      0.14790741      0.24067231      14      -1       0      -1      32     -0.23220868      1.68562328     -0.09213621      0.46754615      0.17854288      0.18655245      0.56501650      0.61585078      0.38564735      1.36868483
 Si              5.80849292      3.29929752     -0.07561209     -0.00535834      0.13348485     -0.10957053      14      -1      -1       0      32     -1.02997562      1.30339898     -3.05466496     -0.22395991     -4.05809712      7.22585617      0.04335612      0.13366892     -0.04184832     -0.37327336
 Si              7.81703817      4.44577626      0.69214854      0.19180629      0.20455109      0.15408539      14      -1      -1       0      32     -0.40269110      4.00953163      2.02456475     -1.30678716      2.30435898      2.19518955     -0.77619161     -0.55024874     -0.25556029      0.03588115
 Si              7.62323214      4.30015139      3.07042634      0.03115381     -0.02941732     -0.08500079      14       0       0      -1      32      0.00000000     -0.09308241      0.01396769      0.02771294      0.04860944     -0.05334206      0.28918696      0.04173406      0.23913722      0.06221875
 Si              9.59480526      5.49885721      3.97497772     -0.09127751      0.10806166      0.14228468      14      -1      -1      -1      31     -0.18423481      0.96986821     -1.40641518     -0.69305441     -1.28843302      2.18596152      0.36691873     -0.73398311      0.58268064      1.19191827
 Sb             -0.13496823     -0.00752612      0.01973334      1.64579987     -1.76521972      3.09493062      51       0       0       0      32     30.69770746    -50.62854087     -3.69772957     -1.69446779     -4.46327478    -51.38613170     -0.77184961     -2.60546570      0.15635916    -44.85904138
 16
 config_type=Sb_subs virial="13.35280477      -2.56029631      -2.32498220      -2.56029631      12.82008817       1.47503750      -2.32498220       1.47503750      22.98784592" energy=-3.5659689070803822 cutoff=5.00000000 nneightol=1.20000000 pbc="T T T" Lattice="7.61747219      -0.12002130      -0.17121814       3.75307619       6.58587433      -0.19241610       3.77166029       2.13627376       6.22175732" Properties=species:S:1:pos:R:3:force:R:3:Z:I:1:map_shift:I:3:n_neighb:I:1:local_energy:R:1:local_virial:R:9
 Si              1.83835980      0.93011903      0.79577848      2.80876286      1.60057951      1.40450938      14       0       0       0      32     -6.57186775     18.73321638      7.11281089      5.72537093      7.37971172      5.95580037      3.25089019      6.00393389      3.26598538      5.58475389
 Si              1.78119406      0.96791937      3.17522693      0.06584663     -0.08438045      0.08174635      14       0       0      -1      32     -1.53401409      3.14411722      1.68914798      5.02320831      1.59529698      0.55175358      2.58707088      3.17967662      1.95090991      5.58891926
 Si              3.84362916      2.23886609      4.01225241      0.24526511     -0.12774446     -7.51485080      14       0       0      -1      33     -6.54873240     -0.98006636     -0.48175770     -2.12894299     -0.36292984      1.74298490     -3.35295579     -4.04199700     -3.21216654     27.85655411
 Si              1.85442118      3.27542799     -0.24163848     -0.10614227     -0.06696184      0.12392437      14       0      -1       0      33     -1.27865287      3.44104028      5.82803255      0.35894026      5.98469451     10.82719613      0.70815442      0.39271935      0.28795410      0.41404898
 Si              3.70881640      4.29126967      0.57498789     -0.05070444     -2.88282957      0.85565107      14       0      -1       0      31     -6.46545575      2.54078894      0.52940029      0.53308575     -1.07626743     19.60545427     -6.36838866      1.06932700     -5.81906352      4.81092428
 Si              3.80692644      4.37639784      3.06336043      0.03735187      0.09040840      0.03955244      14       0       0      -1      33     -0.89739178     -0.44445517      0.17819216     -0.08256027     -0.29403063      2.46981940     -3.35179642      0.15929389     -3.29224300      4.07859314
 Si              5.63083976      5.56788194      3.77952565      0.16414772      0.06356863     -0.08076548      14       0      -1      -1      31     -0.21524242      0.59611063      0.66122841      0.63836531      0.42579421      0.97382647     -0.16003741      0.48963210     -0.07126952      1.34444042
 Si              3.67372700     -0.00749855     -0.19658286      0.11328967     -0.28579635     -0.01220855      14       0       0       0      33     -1.12790099     11.78156931     -0.37418229      1.02455481      0.50106530     -0.25442372      0.01587642      1.55016813      0.18598563      0.48854168
 Si              5.66701447      0.92924912      0.64470718     -4.26067957      2.41512090      1.77685504      14      -1       0       0      31     -6.41717604     15.64361509     -7.94751935     -5.97380350     -8.55400204      8.45022621      4.20796467     -5.77817258      3.81474146      6.24306624
 Si              5.82377444      0.97904307      3.02770703     -0.09395803      0.16264512      0.30216635      14      -1       0      -1      33     -1.17079846      2.56541585     -1.79616395     -5.03798554     -1.63454197      0.73896578      3.01547545     -3.13069473      1.93255666      6.13312362
 Si              7.68490898      2.11272832      3.77796162      0.01563019      0.12187676      0.03097289      14      -1       0      -1      31     -0.22975494      1.51745346     -0.16865751      0.72052029      0.16320734      0.12010620      0.62141694      0.80144468      0.45743612      1.40469319
 Si              5.76892093      3.16789951     -0.00452541      0.02497640      0.31494574      0.01107368      14      -1       0       0      32     -0.95308505      1.18996240     -3.24350426     -0.27105686     -2.12360714      4.69431753     -0.36752606     -0.49328982      0.74330816     -0.10041937
 Si              7.73320219      4.37996758      0.68757343      0.23445726      0.22643548      0.06604613      14      -1      -1       0      33     -0.30783337      3.23286704      1.71965173     -1.10760459      1.85775795      1.93672959     -0.58536340     -0.53782795     -0.20556383      0.00096614
 Si              7.56886900      4.44428309      3.06992409     -0.00739846     -0.00178067     -0.13871640      14       0      -1      -1      31      0.00000000     -0.13052319     -0.04467484     -0.00563111      0.04457138     -0.10487260      0.33758664      0.06944722      0.26763022      0.04920098
 Si              9.45708062      5.63499275      3.93558820     -0.15323746      0.05226279      0.06297601      14      -1      -1      -1      32     -0.24393884      1.69559467     -2.61290756     -1.42434773     -2.51854507      3.66399557      1.65585977     -1.44665862      1.75844570      1.88765783
 Sb             -0.14149225     -0.01958076     -0.02317883      0.96239250     -1.59835001      2.99106751      51       0       0       0      31     30.39587584    -51.17390180     -3.60939286     -0.31709526     -3.94847159    -48.55179153     -0.73919015     -0.61198438     -0.58960944    -42.79721848
 16
 config_type=Sb_subs virial="9.64015945      -5.00412698      -3.53327341      -5.00412698      20.00294170      -4.19236357      -3.53327341      -4.19236357      12.17044464" energy=-3.9864699790281577 cutoff=5.00000000 nneightol=1.20000000 pbc="T T T" Lattice="7.56196994      -0.11041326      -0.10614938       3.73210099       6.52736987      -0.15521489       3.70034195       2.14224422       6.14556633" Properties=species:S:1:pos:R:3:force:R:3:Z:I:1:map_shift:I:3:n_neighb:I:1:local_energy:R:1:local_virial:R:9
 Si              1.94450383      1.06177371      0.81562666      0.08340084      0.26569708     -0.04234271      14       0       0       0      33     -6.03647017     16.70648096      5.81755806      3.98332636      7.40660750      6.47288688      2.85549527      5.33558565      3.01241759      5.98031234
 Si              1.83553916      1.11938177      3.03833182     -0.06265044      0.05144405      0.32846126      14       0       0       0      33     -0.90615787      3.44838835      2.40750653      5.30707813      2.07847253      1.68931549      3.45069867      4.13486545      3.09569286      8.00935612
 Si              3.79668931      2.04477550      3.78388477      0.19710413      0.21267642     -2.74597130      14       0       0      -1      33     -6.16644579      3.85518663     -0.25056772     -1.96172102     -0.29197878      2.98078190      0.10746249     -3.12828297     -0.30173797     21.55243239
 Si              1.87366355      3.28937986     -0.03641013     -0.49149919     -0.52270675      0.00905670      14       0      -1       0      34     -1.46459668      3.38914343      5.36629333      0.08944441      3.15150446      7.38620628      0.07650572      0.47574860      0.55726145      0.23303599
 Si              3.86190949      4.40498516      0.68581971      0.57819171     -7.20563444      2.83606629      14       0      -1       0      33     -6.24067616      2.40746640     -2.78402443      0.19530490     -4.44729757     23.22526167     -8.56364645      0.82802799     -8.27586105      5.94656896
 Si              3.73878979      4.42528739      3.11651845      0.06570969     -0.00035623      0.08619361      14       0      -1      -1      33     -1.23583734     -0.24574240      0.04000754      0.05770100     -0.16582933      2.67507727     -4.21537303     -0.22420767     -4.73473986      7.12806142
 Si              5.52731596      5.38069624      3.85108919      0.20034300     -0.00357143     -0.03460830      14       0      -1      -1      34     -0.17754415      0.44103232      0.42006237      0.27090989      0.34085192      0.29816699     -0.57817818      0.13102276     -0.69638906      0.70665029
 Si              3.84310686     -0.09586817     -0.05413531     -0.76100540     -0.14734947     -0.09036958      14      -1       0       0      33     -1.05184009      8.70917600     -0.51501114     -0.32020518      0.59100682      0.72206003      0.00561641      0.47330201      0.10582047      0.15189743
 Si              5.56919723      0.95957550      0.63999595     -3.30487343      2.08945910      1.33697575      14      -1       0       0      34     -6.04414100     10.76174475     -7.10996780     -4.10849305     -7.72342337      7.58438561      2.66074876     -4.26352625      2.52776320      4.32419035
 Si              5.74919421      1.03995491      3.09184158      0.05283224      0.11246333      0.24164829      14      -1       0      -1      34     -0.94364375      1.21049417     -1.38972461     -3.11855578     -1.05249884      0.45654369      2.08314774     -3.44238686      1.97021579      5.87786288
 Si              7.57956585      2.13563466      3.87810769      0.16795292      0.15970322      0.08908443      14      -1       0      -1      33     -0.23888413      1.26903567     -0.15320481      0.33080322      0.45387550      0.01335076      0.65109703      0.37284335      0.28585248      0.71998000
 Si              5.63231909      3.11535964     -0.08133491      0.09396839      0.53176302     -0.23960837      14      -1       0       0      33     -1.03178071      2.39938350     -4.38373307     -0.08903601     -2.99860173      5.91559829      0.01505540     -0.04784731      0.26436827     -0.50091291
 Si              7.58758002      4.40726608      0.63634102      0.04469170      0.01767395      0.14225158      14      -1      -1       0      33     -0.18183603      0.78902303     -0.53414201      0.00147211     -0.06498079      0.78875840     -0.17869999      0.71478256      0.33066480     -0.29397861
 Si              7.61136860      4.43035828      2.98403637     -0.03713022     -0.07312241     -0.06794912      14      -1      -1      -1      32      0.00000000     -0.13152013      0.03699922     -0.22006589      0.05973958      0.55490370     -0.03095336     -0.17955962      0.00270802      0.02867771
 Si              9.38899674      5.37361561      3.89226506     -0.06247772      0.01176680      0.19571473      14      -1      -1      -1      33     -0.15900070      0.80019854     -0.89304021     -0.67371354     -0.91328911      1.62071253     -0.00438653     -0.63773605      0.01961927      1.57533063
 Sb             -0.16676556     -0.10958676      0.02807225      3.23544179      4.50009378     -2.04460327      51       0       0       0      32     27.89238461    -46.16933176     -1.07913823     -3.27752295     -1.42828577    -42.38106781     -2.52695352     -4.07590506     -2.35601982    -49.26902034
 16
 config_type=Sb_subs virial="13.49948521      -6.44269128      -6.18362899      -6.44269128      10.92862243       2.21074644      -6.18362899       2.21074644      14.74856603" energy=-3.8190248232080464 cutoff=5.00000000 nneightol=1.20000000 pbc="T T T" Lattice="7.63531963      -0.19504386      -0.11840120       3.70015139       6.58711536      -0.17238723       3.72757119       2.06308316       6.22622315" Properties=species:S:1:pos:R:3:force:R:3:Z:I:1:map_shift:I:3:n_neighb:I:1:local_energy:R:1:local_virial:R:9
 Si              1.96851737      1.02404319      0.69505315      1.28583226      0.94838345      0.60477387      14       0       0       0      32     -6.25307172     17.69888687      6.82133888      3.56019580      7.61259579      7.43467605      2.28300387      5.04635493      2.79389893      4.52126897
 Si              1.89402047      1.07311806      3.10702397     -0.01325622     -0.09124882      0.23421273      14       0       0       0      33     -1.20170898      2.80546401      1.62249456      4.56005182      1.23548849      0.67155932      1.98358226      2.90436546      1.79100500      5.77048571
 Si              3.74073140      2.16112628      3.94996562     -0.02597432      0.13319527     -4.30780155      14       0       0      -1      32     -6.31903140      1.62574918      0.06662701     -1.07162516      0.10762879      2.80802319     -1.19493305     -2.51792750     -1.92356834     24.10209129
 Si              1.78316181      3.33536985     -0.10962904     -0.00661968     -0.04053941      0.02769420      14       0      -1       0      33     -1.27765786      2.84021950      5.23112926     -0.12707530      3.81723721      8.10575293      0.04180112      0.23533322      0.47653901      0.18694680
 Si              3.82130487      4.29600523      0.58595150     -0.07299675     -2.50301567      0.97996363      14       0      -1       0      31     -6.26212158      2.99440455     -1.88097075      0.38768897     -3.46412846     18.53936115     -5.23076263      0.91425275     -5.20428398      4.31034418
 Si              3.84176504      4.40320441      3.14688077     -0.00775071      0.01506239     -0.00123565      14       0      -1      -1      31     -0.87814604     -0.41518690      0.05004663      0.20411968     -0.15000314      2.18991733     -3.37974183     -0.24404987     -3.87314848      4.69172697
 Si              5.64122173      5.40805275      3.88429311      0.13133538      0.01950987     -0.03405817      14       0      -1      -1      31     -0.23377843      0.58939348      0.97873399      0.49994681      0.59220260      1.03440766     -0.08218262      0.25445107      0.02059146      0.97272634
 Si              3.72424683     -0.03450958     -0.14417760      0.08645170     -0.32978962     -0.04448243      14       0       0       0      31     -0.86077653      6.59676021     -0.47087360      0.03885254      1.85669271     -0.09169804     -0.04216808      1.18204387      0.14261797      0.24519426
 Si              5.80871842      0.87075188      0.72118365     -6.18609990      3.95200778      2.85024255      14      -1       0       0      31     -6.31616223     16.01804142    -10.60355232     -8.02063644    -10.22822541      8.65898840      5.44503581     -7.90869736      5.56244670      6.75104659
 Si              5.73272755      0.99730914      3.12707878      0.23824988     -0.10000191      0.05040308      14       0       0      -1      33     -1.10187765      1.62666529     -1.21253613     -3.00711577     -0.95818064      0.14230377      1.77581715     -3.44252551      1.88979562      5.45516065
 Si              7.77111490      2.10913856      3.83447847      0.07427322      0.14779357     -0.02191055      14      -1       0      -1      31     -0.32133140      2.93117809     -0.42570434      1.68665719      0.28000116     -0.11991278      0.65770117      1.50690697      0.20417189      1.76048023
 Si              5.75116469      3.22457430     -0.10531323      0.24220251     -0.01893687     -0.07156010      14      -1      -1       0      33     -0.85215988      0.00368778     -1.53057214      0.04238206     -2.08330965      3.88305360     -0.31130526      0.33790813     -0.38886542     -0.47040007
 Si              7.69761436      4.33417513      0.66178875     -0.14398248      0.18507479      0.12006625      14      -1      -1       0      32     -0.31477770      2.74412193      1.18159120     -0.78960982      1.37052066      1.58078286     -0.40669683      0.01495873      0.13859915     -0.12309216
 Si              7.69622608      4.41882665      3.11206134      0.00222024     -0.05108793     -0.09305416      14       0      -1      -1      31      0.00000000      0.13236089     -0.02512105     -0.06142253     -0.02278185      0.19251513      0.29586974      0.00109534      0.23682789      0.44821708
 Si              9.68529874      5.41124924      3.95469880     -0.10238072     -0.06000814      0.20027064      14      -1      -1      -1      32     -0.13865866      0.60159742     -0.43697508     -0.41676696     -0.45821912      0.93459889     -0.07374733     -0.45522957     -0.03911954      1.28573618
 Sb             -0.17654527     -0.06074981      0.00956233      4.49849559     -2.20639873     -0.49352434      51       0       0       0      31     28.51223523    -45.29385851     -5.80834739     -3.66927189     -5.95021043    -45.03570704      0.44947297     -4.01286966      0.38323859    -45.15936698
 16
 config_type=Sb_subs virial="15.32337070       1.79917090       0.62281072       1.79917090      12.01341909       0.40150988       0.62281072       0.40150988      18.47547119" energy=-4.1175632943857181 cutoff=5.00000000 nneightol=1.20000000 pbc="T T T" Lattice="7.64574103      -0.17327851      -0.10057267       3.78397145       6.50980405      -0.19978837       3.72083396       2.04437791       6.15216120" Properties=species:S:1:pos:R:3:force:R:3:Z:I:1:map_shift:I:3:n_neighb:I:1:local_energy:R:1:local_virial:R:9
 Si              1.86810869      1.00550653      0.61933074      5.27808930      2.89434283      2.18277249      14       0       0       0      31     -6.28421246     20.14102319      9.28768729      5.65246680      9.35611207      8.20109197      2.87523097      6.31384096      3.20456155      3.51855307
 Si              1.89289939      0.94895394      2.94424852     -0.32387344     -0.16391730      0.11140208      14       0       0       0      33     -1.57013895      2.84496436      1.76897203      5.15644940      1.90335647      1.15935687      2.96502594      3.68068520      2.22314266      6.97820233
 Si              3.72529146      2.03951137      3.83872231     -0.15584142     -0.16060537     -6.31094673      14       0       0      -1      32     -6.25831900      2.16176188     -0.19386079     -0.47100042     -0.19109142      2.53331168     -0.33470917     -0.46430415     -0.09812897     25.55499434
 Si              2.02414494      3.19023531     -0.08111277     -0.29310272      0.15435114     -0.21931311      14       0       0       0      32     -0.89889784      2.43769601      4.54066176     -0.25951044      4.08419622      7.90513821     -0.97378616      0.14636334     -0.25801305      0.19785881
 Si              3.77047874      4.22782733      0.67107967      0.05497487     -2.24392668      0.79656653      14       0      -1       0      31     -6.18952251      3.52162978     -0.73790930     -0.29602259     -1.00767341     19.02249990     -7.27343866     -0.18743182     -6.33999987      5.05866668
 Si              3.80320304      4.25184018      3.06311978     -0.02000703      0.29135078     -0.15761983      14       0       0      -1      33     -0.89946305     -0.10633756      0.20853819      0.32978096      0.11445047      2.39693918     -2.67623356      0.28414343     -3.71863874      4.66322801
 Si              5.81535482      5.39459107      3.76604254      0.17654231      0.12224003      0.04162605      14       0      -1      -1      32     -0.36541484      0.93146620      2.12618468      1.17531753      1.61235744      3.09477554      1.51372978      0.76864294      1.39117986      1.62024896