 2
 config_type=Sb_Sb_dimer energy=.92095470215048636 virial="62.60804102       0.00000000       0.00000000       0.00000000       0.00000000       0.00000000       0.00000000       0.00000000       0.00000000" cutoff=5.00000000 nneightol=1.20000000 pbc="T T T" Lattice="30.00000000       0.00000000       0.00000000       0.00000000      30.00000000       0.00000000       0.00000000       0.00000000      30.00000000" Properties=species:S:1:pos:R:3:force:R:3:Z:I:1:map_shift:I:3:n_neighb:I:1:local_energy:R:1:local_virial:R:9
 Sb              0.00000000      0.00000000      0.00000000    -32.95160054      0.00000000      0.00000000      51       0       0       0       1      0.46047735     31.30402051      0.00000000      0.00000000      0.00000000      0.00000000      0.00000000      0.00000000      0.00000000      0.00000000
 Sb              1.90000000      0.00000000      0.00000000     32.95160054      0.00000000      0.00000000      51       0       0       0       1      0.46047735     31.30402051      0.00000000      0.00000000      0.00000000      0.00000000      0.00000000      0.00000000      0.00000000      0.00000000
 2
 config_type=Sb_Sb_dimer energy=-.73087307380824995 virial="52.90547278       0.00000000       0.00000000       0.00000000       0.00000000       0.00000000       0.00000000       0.00000000       0.00000000" cutoff=5.00000000 nneightol=1.20000000 pbc="T T T" Lattice="30.00000000       0.00000000       0.00000000       0.00000000      30.00000000       0.00000000       0.00000000       0.00000000      30.00000000" Properties=species:S:1:pos:R:3:force:R:3:Z:I:1:map_shift:I:3:n_neighb:I:1:local_energy:R:1:local_virial:R:9
 Sb              0.00000000      0.00000000      0.00000000    -27.05923657      0.00000000      0.00000000      51       0       0       0       1     -0.36543654     26.45273639      0.00000000      0.00000000      0.00000000      0.00000000      0.00000000      0.00000000      0.00000000      0.00000000
 Sb              1.95517241      0.00000000      0.00000000     27.05923657      0.00000000      0.00000000      51       0       0       0       1     -0.36543654     26.45273639      0.00000000      0.00000000      0.00000000      0.00000000      0.00000000      0.00000000      0.00000000      0.00000000
 2
 config_type=Sb_Sb_dimer energy=-2.0790266703702924 virial="44.09696885       0.00000000       0.00000000       0.00000000       0.00000000       0.00000000       0.00000000       0.00000000       0.00000000" cutoff=5.00000000 nneightol=1.20000000 pbc="T T T" Lattice="30.00000000       0.00000000       0.00000000       0.00000000      30.00000000       0.00000000       0.00000000       0.00000000      30.00000000" Properties=species:S:1:pos:R:3:force:R:3:Z:I:1:map_shift:I:3:n_neighb:I:1:local_energy:R:1:local_virial:R:9
 Sb              0.00000000      0.00000000      0.00000000    -21.93502736      0.00000000      0.00000000      51       0       0       0       1     -1.03951334     22.04848443      0.00000000      0.00000000      0.00000000      0.00000000      0.00000000      0.00000000      0.00000000      0.00000000
 Sb              2.01034483      0.00000000      0.00000000     21.93502736      0.00000000      0.00000000      51       0       0       0       1     -1.03951334     22.04848443      0.00000000      0.00000000      0.00000000      0.00000000      0.00000000      0.00000000      0.00000000      0.00000000
 2
 config_type=Sb_Sb_dimer energy=-3.1643981988750580 virial="36.19468112       0.00000000       0.00000000       0.00000000       0.00000000       0.00000000       0.00000000       0.00000000       0.00000000" cutoff=5.00000000 nneightol=1.20000000 pbc="T T T" Lattice="30.00000000       0.00000000       0.00000000       0.00000000      30.00000000       0.00000000       0.00000000       0.00000000      30.00000000" Properties=species:S:1:pos:R:3:force:R:3:Z:I:1:map_shift:I:3:n_neighb:I:1:local_energy:R:1:local_virial:R:9
 Sb              0.00000000      0.00000000      0.00000000    -17.52330139      0.00000000      0.00000000      51       0       0       0       1     -1.58219910     18.09734056      0.00000000      0.00000000      0.00000000      0.00000000      0.00000000      0.00000000      0.00000000      0.00000000
 Sb              2.06551724      0.00000000      0.00000000     17.52330139      0.00000000      0.00000000      51       0       0       0       1     -1.58219910     18.09734056      0.00000000      0.00000000      0.00000000      0.00000000      0.00000000      0.00000000      0.00000000      0.00000000
 2
 config_type=Sb_Sb_dimer energy=-4.0245612383628737 virial="29.18081540       0.00000000       0.00000000       0.00000000       0.00000000       0.00000000       0.00000000       0.00000000       0.00000000" cutoff=5.00000000 nneightol=1.20000000 pbc="T T T" Lattice="30.00000000       0.00000000       0.00000000       0.00000000      30.00000000       0.00000000       0.00000000       0.00000000      30.00000000" Properties=species:S:1:pos:R:3:force:R:3:Z:I:1:map_shift:I:3:n_neighb:I:1:local_energy:R:1:local_virial:R:9
 Sb              0.00000000      0.00000000      0.00000000    -13.76005926      0.00000000      0.00000000      51       0       0       0       1     -2.01228062     14.59040770      0.00000000      0.00000000      0.00000000      0.00000000      0.00000000      0.00000000      0.00000000      0.00000000
 Sb              2.12068966      0.00000000      0.00000000     13.76005926      0.00000000      0.00000000      51       0       0       0       1     -2.01228062     14.59040770      0.00000000      0.00000000      0.00000000      0.00000000      0.00000000      0.00000000      0.00000000      0.00000000
 2
 config_type=Sb_Sb_dimer energy=-4.6934163539668203 virial="23.01362806       0.00000000       0.00000000       0.00000000       0.00000000       0.00000000       0.00000000       0.00000000       0.00000000" cutoff=5.00000000 nneightol=1.20000000 pbc="T T T" Lattice="30.00000000       0.00000000       0.00000000       0.00000000      30.00000000       0.00000000       0.00000000       0.00000000      30.00000000" Properties=species:S:1:pos:R:3:force:R:3:Z:I:1:map_shift:I:3:n_neighb:I:1:local_energy:R:1:local_virial:R:9
 Sb              0.00000000      0.00000000      0.00000000    -10.57678627      0.00000000      0.00000000      51       0       0       0       1     -2.34670818     11.50681403      0.00000000      0.00000000      0.00000000      0.00000000      0.00000000      0.00000000      0.00000000      0.00000000
 Sb              2.17586207      0.00000000      0.00000000     10.57678627      0.00000000      0.00000000      51       0       0       0       1     -2.34670818     11.50681403      0.00000000      0.00000000      0.00000000      0.00000000      0.00000000      0.00000000      0.00000000      0.00000000
 2
 config_type=Sb_Sb_dimer energy=-5.2010395484708694 virial="17.63380911       0.00000000       0.00000000       0.00000000       0.00000000       0.00000000       0.00000000       0.00000000       0.00000000" cutoff=5.00000000 nneightol=1.20000000 pbc="T T T" Lattice="30.00000000       0.00000000       0.00000000       0.00000000      30.00000000       0.00000000       0.00000000       0.00000000      30.00000000" Properties=species:S:1:pos:R:3:force:R:3:Z:I:1:map_shift:I:3:n_neighb:I:1:local_energy:R:1:local_virial:R:9
 Sb              0.00000000      0.00000000      0.00000000     -7.90387117      0.00000000      0.00000000      51       0       0       0       1     -2.60051977      8.81690455      0.00000000      0.00000000      0.00000000      0.00000000      0.00000000      0.00000000      0.00000000      0.00000000
 Sb              2.23103448      0.00000000      0.00000000      7.90387117      0.00000000      0.00000000      51       0       0       0       1     -2.60051977      8.81690455      0.00000000      0.00000000      0.00000000      0.00000000      0.00000000      0.00000000      0.00000000      0.00000000
 2
 config_type=Sb_Sb_dimer energy=-5.5737041751495395 virial="12.97083886       0.00000000       0.00000000       0.00000000       0.00000000       0.00000000       0.00000000       0.00000000       0.00000000" cutoff=5.00000000 nneightol=1.20000000 pbc="T T T" Lattice="30.00000000       0.00000000       0.00000000       0.00000000      30.00000000       0.00000000       0.00000000       0.00000000      30.00000000" Properties=species:S:1:pos:R:3:force:R:3:Z:I:1:map_shift:I:3:n_neighb:I:1:local_energy:R:1:local_virial:R:9
 Sb              0.00000000      0.00000000      0.00000000     -5.67351925      0.00000000      0.00000000      51       0       0       0       1     -2.78685209      6.48541943      0.00000000      0.00000000      0.00000000      0.00000000      0.00000000      0.00000000      0.00000000      0.00000000
 Sb              2.28620690      0.00000000      0.00000000      5.67351925      0.00000000      0.00000000      51       0       0       0       1     -2.78685209      6.48541943      0.00000000      0.00000000      0.00000000      0.00000000      0.00000000      0.00000000      0.00000000      0.00000000
 2
 config_type=Sb_Sb_dimer energy=-5.8340476569160797 virial="8.94889623       0.00000000       0.00000000       0.00000000       0.00000000       0.00000000       0.00000000       0.00000000       0.00000000" cutoff=5.00000000 nneightol=1.20000000 pbc="T T T" Lattice="30.00000000       0.00000000       0.00000000       0.00000000      30.00000000       0.00000000       0.00000000       0.00000000      30.00000000" Properties=species:S:1:pos:R:3:force:R:3:Z:I:1:map_shift:I:3:n_neighb:I:1:local_energy:R:1:local_virial:R:9
 Sb              0.00000000      0.00000000      0.00000000     -3.82206172      0.00000000      0.00000000      51       0       0       0       1     -2.91702383      4.47444811      0.00000000      0.00000000      0.00000000      0.00000000      0.00000000      0.00000000      0.00000000      0.00000000
 Sb              2.34137931      0.00000000      0.00000000      3.82206172      0.00000000      0.00000000      51       0       0       0       1     -2.91702383      4.47444811      0.00000000      0.00000000      0.00000000      0.00000000      0.00000000      0.00000000      0.00000000      0.00000000
 2
 config_type=Sb_Sb_dimer energy=-6.0013483390635498 virial="5.49197665       0.00000000       0.00000000       0.00000000       0.00000000       0.00000000       0.00000000       0.00000000       0.00000000" cutoff=5.00000000 nneightol=1.20000000 pbc="T T T" Lattice="30.00000000       0.00000000       0.00000000       0.00000000      30.00000000       0.00000000       0.00000000       0.00000000      30.00000000" Properties=species:S:1:pos:R:3:force:R:3:Z:I:1:map_shift:I:3:n_neighb:I:1:local_energy:R:1:local_virial:R:9
 Sb              0.00000000      0.00000000      0.00000000     -2.29161616      0.00000000      0.00000000      51       0       0       0       1     -3.00067417      2.74598833      0.00000000      0.00000000      0.00000000      0.00000000      0.00000000      0.00000000      0.00000000      0.00000000
 Sb              2.39655172      0.00000000      0.00000000      2.29161616      0.00000000      0.00000000      51       0       0       0       1     -3.00067417      2.74598833      0.00000000      0.00000000      0.00000000      0.00000000      0.00000000      0.00000000      0.00000000      0.00000000
 2
 config_type=Sb_Sb_dimer energy=-6.0918755027983549 virial="2.52798674       0.00000000       0.00000000       0.00000000       0.00000000       0.00000000       0.00000000       0.00000000       0.00000000" cutoff=5.00000000 nneightol=1.20000000 pbc="T T T" Lattice="30.00000000       0.00000000       0.00000000       0.00000000      30.00000000       0.00000000       0.00000000       0.00000000      30.00000000" Properties=species:S:1:pos:R:3:force:R:3:Z:I:1:map_shift:I:3:n_neighb:I:1:local_energy:R:1:local_virial:R:9
 Sb              0.00000000      0.00000000      0.00000000     -1.03110570      0.00000000      0.00000000      51       0       0       0       1     -3.04593775      1.26399337      0.00000000      0.00000000      0.00000000      0.00000000      0.00000000      0.00000000      0.00000000      0.00000000
 Sb              2.45172414      0.00000000      0.00000000      1.03110570      0.00000000      0.00000000      51       0       0       0       1     -3.04593775      1.26399337      0.00000000      0.00000000      0.00000000      0.00000000      0.00000000      0.00000000      0.00000000      0.00000000
 2
 config_type=Sb_Sb_dimer energy=-6.1192788986195934 virial="-0.00833989       0.00000000       0.00000000       0.00000000       0.00000000       0.00000000       0.00000000       0.00000000       0.00000000" cutoff=5.00000000 nneightol=1.20000000 pbc="T T T" Lattice="30.00000000       0.00000000       0.00000000       0.00000000      30.00000000       0.00000000       0.00000000       0.00000000      30.00000000" Properties=species:S:1:pos:R:3:force:R:3:Z:I:1:map_shift:I:3:n_neighb:I:1:local_energy:R:1:local_virial:R:9
 Sb              0.00000000      0.00000000      0.00000000      0.00332678      0.00000000      0.00000000      51       0       0       0       1     -3.05963945     -0.00416994      0.00000000      0.00000000      0.00000000      0.00000000      0.00000000      0.00000000      0.00000000      0.00000000
 Sb              2.50689655      0.00000000      0.00000000     -0.00332678      0.00000000      0.00000000      51       0       0       0       1     -3.05963945     -0.00416994      0.00000000      0.00000000      0.00000000      0.00000000      0.00000000      0.00000000      0.00000000      0.00000000
 2
 config_type=Sb_Sb_dimer energy=-6.0949861999584369 virial="-2.17374639       0.00000000       0.00000000       0.00000000       0.00000000       0.00000000       0.00000000       0.00000000       0.00000000" cutoff=5.00000000 nneightol=1.20000000 pbc="T T T" Lattice="30.00000000       0.00000000       0.00000000       0.00000000      30.00000000       0.00000000       0.00000000       0.00000000      30.00000000" Properties=species:S:1:pos:R:3:force:R:3:Z:I:1:map_shift:I:3:n_neighb:I:1:local_energy:R:1:local_virial:R:9
 Sb              0.00000000      0.00000000      0.00000000      0.84843399      0.00000000      0.00000000      51       0       0       0       1     -3.04749310     -1.08687320      0.00000000      0.00000000      0.00000000      0.00000000      0.00000000      0.00000000      0.00000000      0.00000000
 Sb              2.56206897      0.00000000      0.00000000     -0.84843399      0.00000000      0.00000000      51       0       0       0       1     -3.04749310     -1.08687320      0.00000000      0.00000000      0.00000000      0.00000000      0.00000000      0.00000000      0.00000000      0.00000000
 2
 config_type=Sb_Sb_dimer energy=-6.0285817853151071 virial="-4.01589923       0.00000000       0.00000000       0.00000000       0.00000000       0.00000000       0.00000000       0.00000000       0.00000000" cutoff=5.00000000 nneightol=1.20000000 pbc="T T T" Lattice="30.00000000       0.00000000       0.00000000       0.00000000      30.00000000       0.00000000       0.00000000       0.00000000      30.00000000" Properties=species:S:1:pos:R:3:force:R:3:Z:I:1:map_shift:I:3:n_neighb:I:1:local_energy:R:1:local_virial:R:9
 Sb              0.00000000      0.00000000      0.00000000      1.53440155      0.00000000      0.00000000      51       0       0       0       1     -3.01429089     -2.00794961      0.00000000      0.00000000      0.00000000      0.00000000      0.00000000      0.00000000      0.00000000      0.00000000
 Sb              2.61724138      0.00000000      0.00000000     -1.53440155      0.00000000      0.00000000      51       0       0       0       1     -3.01429089     -2.00794961      0.00000000      0.00000000      0.00000000      0.00000000      0.00000000      0.00000000      0.00000000      0.00000000
 2
 config_type=Sb_Sb_dimer energy=-5.9281468519043825 virial="-5.57383509       0.00000000       0.00000000       0.00000000       0.00000000       0.00000000       0.00000000       0.00000000       0.00000000" cutoff=5.00000000 nneightol=1.20000000 pbc="T T T" Lattice="30.00000000       0.00000000       0.00000000       0.00000000      30.00000000       0.00000000       0.00000000       0.00000000      30.00000000" Properties=species:S:1:pos:R:3:force:R:3:Z:I:1:map_shift:I:3:n_neighb:I:1:local_energy:R:1:local_virial:R:9
 Sb              0.00000000      0.00000000      0.00000000      2.08569313      0.00000000      0.00000000      51       0       0       0       1     -2.96407343     -2.78691755      0.00000000      0.00000000      0.00000000      0.00000000      0.00000000      0.00000000      0.00000000      0.00000000
 Sb              2.67241379      0.00000000      0.00000000     -2.08569313      0.00000000      0.00000000      51       0       0       0       1     -2.96407343     -2.78691755      0.00000000      0.00000000      0.00000000      0.00000000      0.00000000      0.00000000      0.00000000      0.00000000
 2
 config_type=Sb_Sb_dimer energy=-5.8005474397037302 virial="-6.87917026       0.00000000       0.00000000       0.00000000       0.00000000       0.00000000       0.00000000       0.00000000       0.00000000" cutoff=5.00000000 nneightol=1.20000000 pbc="T T T" Lattice="30.00000000       0.00000000       0.00000000       0.00000000      30.00000000       0.00000000       0.00000000       0.00000000      30.00000000" Properties=species:S:1:pos:R:3:force:R:3:Z:I:1:map_shift:I:3:n_neighb:I:1:local_energy:R:1:local_virial:R:9
 Sb              0.00000000      0.00000000      0.00000000      2.52207253      0.00000000      0.00000000      51       0       0       0       1     -2.90027372     -3.43958513      0.00000000      0.00000000      0.00000000      0.00000000      0.00000000      0.00000000      0.00000000      0.00000000
 Sb              2.72758621      0.00000000      0.00000000     -2.52207253      0.00000000      0.00000000      51       0       0       0       1     -2.90027372     -3.43958513      0.00000000      0.00000000      0.00000000      0.00000000      0.00000000      0.00000000      0.00000000      0.00000000
 2
 config_type=Sb_Sb_dimer energy=-5.6516640717186943 virial="-7.95780385       0.00000000       0.00000000       0.00000000       0.00000000       0.00000000       0.00000000       0.00000000       0.00000000" cutoff=5.00000000 nneightol=1.20000000 pbc="T T T" Lattice="30.00000000       0.00000000       0.00000000       0.00000000      30.00000000       0.00000000       0.00000000       0.00000000      30.00000000" Properties=species:S:1:pos:R:3:force:R:3:Z:I:1:map_shift:I:3:n_neighb:I:1:local_energy:R:1:local_virial:R:9
 Sb              0.00000000      0.00000000      0.00000000      2.85968168      0.00000000      0.00000000      51       0       0       0       1     -2.82583204     -3.97890192      0.00000000      0.00000000      0.00000000      0.00000000      0.00000000      0.00000000      0.00000000      0.00000000
 Sb              2.78275862      0.00000000      0.00000000     -2.85968168      0.00000000      0.00000000      51       0       0       0       1     -2.82583204     -3.97890192      0.00000000      0.00000000      0.00000000      0.00000000      0.00000000      0.00000000      0.00000000      0.00000000
 2
 config_type=Sb_Sb_dimer energy=-5.4865627205113539 virial="-8.83182453       0.00000000       0.00000000       0.00000000       0.00000000       0.00000000       0.00000000       0.00000000       0.00000000" cutoff=5.00000000 nneightol=1.20000000 pbc="T T T" Lattice="30.00000000       0.00000000       0.00000000       0.00000000      30.00000000       0.00000000       0.00000000       0.00000000      30.00000000" Properties=species:S:1:pos:R:3:force:R:3:Z:I:1:map_shift:I:3:n_neighb:I:1:local_energy:R:1:local_virial:R:9
 Sb              0.00000000      0.00000000      0.00000000      3.11206454      0.00000000      0.00000000      51       0       0       0       1     -2.74328136     -4.41591226      0.00000000      0.00000000      0.00000000      0.00000000      0.00000000      0.00000000      0.00000000      0.00000000
 Sb              2.83793103      0.00000000      0.00000000     -3.11206454      0.00000000      0.00000000      51       0       0       0       1     -2.74328136     -4.41591226      0.00000000      0.00000000      0.00000000      0.00000000      0.00000000      0.00000000      0.00000000      0.00000000
 2
 config_type=Sb_Sb_dimer energy=-5.3096131286989090 virial="-9.52133579       0.00000000       0.00000000       0.00000000       0.00000000       0.00000000       0.00000000       0.00000000       0.00000000" cutoff=5.00000000 nneightol=1.20000000 pbc="T T T" Lattice="30.00000000       0.00000000       0.00000000       0.00000000      30.00000000       0.00000000       0.00000000       0.00000000      30.00000000" Properties=species:S:1:pos:R:3:force:R:3:Z:I:1:map_shift:I:3:n_neighb:I:1:local_energy:R:1:local_virial:R:9
 Sb              0.00000000      0.00000000      0.00000000      3.29104574      0.00000000      0.00000000      51       0       0       0       1     -2.65480656     -4.76066789      0.00000000      0.00000000      0.00000000      0.00000000      0.00000000      0.00000000      0.00000000      0.00000000
 Sb              2.89310345      0.00000000      0.00000000     -3.29104574      0.00000000      0.00000000      51       0       0       0       1     -2.65480656     -4.76066789      0.00000000      0.00000000      0.00000000      0.00000000      0.00000000      0.00000000      0.00000000      0.00000000
 2
 config_type=Sb_Sb_dimer energy=-5.1245642060808292 virial="-10.04596032       0.00000000       0.00000000       0.00000000       0.00000000       0.00000000       0.00000000       0.00000000       0.00000000" cutoff=5.00000000 nneightol=1.20000000 pbc="T T T" Lattice="30.00000000       0.00000000       0.00000000       0.00000000      30.00000000       0.00000000       0.00000000       0.00000000      30.00000000" Properties=species:S:1:pos:R:3:force:R:3:Z:I:1:map_shift:I:3:n_neighb:I:1:local_energy:R:1:local_virial:R:9
 Sb              0.00000000      0.00000000      0.00000000      3.40740175      0.00000000      0.00000000      51       0       0       0       1     -2.56228210     -5.02298016      0.00000000      0.00000000      0.00000000      0.00000000      0.00000000      0.00000000      0.00000000      0.00000000
 Sb              2.94827586      0.00000000      0.00000000     -3.40740175      0.00000000      0.00000000      51       0       0       0       1     -2.56228210     -5.02298016      0.00000000      0.00000000      0.00000000      0.00000000      0.00000000      0.00000000      0.00000000      0.00000000
 2
 config_type=Sb_Sb_dimer energy=-4.9345886218657666 virial="-10.42584243       0.00000000       0.00000000       0.00000000       0.00000000       0.00000000       0.00000000       0.00000000       0.00000000" cutoff=5.00000000 nneightol=1.20000000 pbc="T T T" Lattice="30.00000000       0.00000000       0.00000000       0.00000000      30.00000000       0.00000000       0.00000000       0.00000000      30.00000000" Properties=species:S:1:pos:R:3:force:R:3:Z:I:1:map_shift:I:3:n_neighb:I:1:local_energy:R:1:local_virial:R:9
 Sb              0.00000000      0.00000000      0.00000000      3.47129082      0.00000000      0.00000000      51       0       0       0       1     -2.46729431     -5.21292122      0.00000000      0.00000000      0.00000000      0.00000000      0.00000000      0.00000000      0.00000000      0.00000000
 Sb              3.00344828      0.00000000      0.00000000     -3.47129082      0.00000000      0.00000000      51       0       0       0       1     -2.46729431     -5.21292122      0.00000000      0.00000000      0.00000000      0.00000000      0.00000000      0.00000000      0.00000000      0.00000000
 2
 config_type=Sb_Sb_dimer energy=-4.7423110004188471 virial="-10.68204208       0.00000000       0.00000000       0.00000000       0.00000000       0.00000000       0.00000000       0.00000000       0.00000000" cutoff=5.00000000 nneightol=1.20000000 pbc="T T T" Lattice="30.00000000       0.00000000       0.00000000       0.00000000      30.00000000       0.00000000       0.00000000       0.00000000      30.00000000" Properties=species:S:1:pos:R:3:force:R:3:Z:I:1:map_shift:I:3:n_neighb:I:1:local_energy:R:1:local_virial:R:9
 Sb              0.00000000      0.00000000      0.00000000      3.49243766      0.00000000      0.00000000      51       0       0       0       1     -2.37115550     -5.34102104      0.00000000      0.00000000      0.00000000      0.00000000      0.00000000      0.00000000      0.00000000      0.00000000
 Sb              3.05862069      0.00000000      0.00000000     -3.49243766      0.00000000      0.00000000      51       0       0       0       1     -2.37115550     -5.34102104      0.00000000      0.00000000      0.00000000      0.00000000      0.00000000      0.00000000      0.00000000      0.00000000
 2
 config_type=Sb_Sb_dimer energy=-4.5498316497074098 virial="-10.83630596       0.00000000       0.00000000       0.00000000       0.00000000       0.00000000       0.00000000       0.00000000       0.00000000" cutoff=5.00000000 nneightol=1.20000000 pbc="T T T" Lattice="30.00000000       0.00000000       0.00000000       0.00000000      30.00000000       0.00000000       0.00000000       0.00000000      30.00000000" Properties=species:S:1:pos:R:3:force:R:3:Z:I:1:map_shift:I:3:n_neighb:I:1:local_energy:R:1:local_virial:R:9
 Sb              0.00000000      0.00000000      0.00000000      3.48009826      0.00000000      0.00000000      51       0       0       0       1     -2.27491582     -5.41815298      0.00000000      0.00000000      0.00000000      0.00000000      0.00000000      0.00000000      0.00000000      0.00000000
 Sb              3.11379310      0.00000000      0.00000000     -3.48009826      0.00000000      0.00000000      51       0       0       0       1     -2.27491582     -5.41815298      0.00000000      0.00000000      0.00000000      0.00000000      0.00000000      0.00000000      0.00000000      0.00000000
 2
 config_type=Sb_Sb_dimer energy=-4.3587575871702553 virial="-10.91028196       0.00000000       0.00000000       0.00000000       0.00000000       0.00000000       0.00000000       0.00000000       0.00000000" cutoff=5.00000000 nneightol=1.20000000 pbc="T T T" Lattice="30.00000000       0.00000000       0.00000000       0.00000000      30.00000000       0.00000000       0.00000000       0.00000000      30.00000000" Properties=species:S:1:pos:R:3:force:R:3:Z:I:1:map_shift:I:3:n_neighb:I:1:local_energy:R:1:local_virial:R:9
 Sb              0.00000000      0.00000000      0.00000000      3.44285285      0.00000000      0.00000000      51       0       0       0       1     -2.17937879     -5.45514098      0.00000000      0.00000000      0.00000000      0.00000000      0.00000000      0.00000000      0.00000000      0.00000000
 Sb              3.16896552      0.00000000      0.00000000     -3.44285285      0.00000000      0.00000000      51       0       0       0       1     -2.17937879     -5.45514098      0.00000000      0.00000000      0.00000000      0.00000000      0.00000000      0.00000000      0.00000000      0.00000000
 2
 config_type=Sb_Sb_dimer energy=-4.1702482430687793 virial="-10.92432401       0.00000000       0.00000000       0.00000000       0.00000000       0.00000000       0.00000000       0.00000000       0.00000000" cutoff=5.00000000 nneightol=1.20000000 pbc="T T T" Lattice="30.00000000       0.00000000       0.00000000       0.00000000      30.00000000       0.00000000       0.00000000       0.00000000      30.00000000" Properties=species:S:1:pos:R:3:force:R:3:Z:I:1:map_shift:I:3:n_neighb:I:1:local_energy:R:1:local_virial:R:9
 Sb              0.00000000      0.00000000      0.00000000      3.38829301      0.00000000      0.00000000      51       0       0       0       1     -2.08512412     -5.46216201      0.00000000      0.00000000      0.00000000      0.00000000      0.00000000      0.00000000      0.00000000      0.00000000
 Sb              3.22413793      0.00000000      0.00000000     -3.38829301      0.00000000      0.00000000      51       0       0       0       1     -2.08512412     -5.46216201      0.00000000      0.00000000      0.00000000      0.00000000      0.00000000      0.00000000      0.00000000      0.00000000
 2
 config_type=Sb_Sb_dimer energy=-3.9850793098890405 virial="-10.89609239       0.00000000       0.00000000       0.00000000       0.00000000       0.00000000       0.00000000       0.00000000       0.00000000" cutoff=5.00000000 nneightol=1.20000000 pbc="T T T" Lattice="30.00000000       0.00000000       0.00000000       0.00000000      30.00000000       0.00000000       0.00000000       0.00000000      30.00000000" Properties=species:S:1:pos:R:3:force:R:3:Z:I:1:map_shift:I:3:n_neighb:I:1:local_energy:R:1:local_virial:R:9
 Sb              0.00000000      0.00000000      0.00000000      3.32267802      0.00000000      0.00000000      51       0       0       0       1     -1.99253965     -5.44804620      0.00000000      0.00000000      0.00000000      0.00000000      0.00000000      0.00000000      0.00000000      0.00000000
 Sb              3.27931034      0.00000000      0.00000000     -3.32267802      0.00000000      0.00000000      51       0       0       0       1     -1.99253965     -5.44804620      0.00000000      0.00000000      0.00000000      0.00000000      0.00000000      0.00000000      0.00000000      0.00000000
 2