 15
 config_type=Sb_vac virial="9.49394438      -2.60248426      -2.99369083      -2.60248426       5.94340841       1.70397256      -2.99369083       1.70397256      18.99649860" energy=-4.4059887943730445 cutoff=5.00000000 nneightol=1.20000000 pbc="T T T" Lattice="7.56311614      -0.13901802      -0.10303045       3.76951288       6.57567351      -0.17962856       3.72835779       2.11623311       6.19775491" Properties=species:S:1:pos:R:3:force:R:3:Z:I:1:map_shift:I:3:n_neighb:I:1:local_energy:R:1:local_virial:R:9
 Si              1.68248442      0.89963462      2.97878433     -0.21350844     -0.17500650     -0.11313380      14       0       0       0      32     -1.33134230      2.32528758      1.10956595      3.68474137      1.53298531      0.30161737      2.32978164      6.80618168      3.62749783     10.41285909
 Si              3.55687954      1.94531597      3.83400222      0.09479079     -0.38042487     -6.26629793      14       0       0      -1      31     -6.40586859      3.40978801      0.62193494      0.99976360      0.71156584      3.34050526      0.55331842      1.96480477      2.95732034     30.28278984
 Si              1.73731732      3.25463498     -0.18858053     -0.19570562     -0.29172851     -0.02450413      14       0       0       0      32     -0.72899195      2.29558264      3.88729372     -0.10748465      6.77038436     11.56239313     -0.30688210     -1.20579360     -2.07722690     -0.17294643
 Si              3.64323202      4.17046607      0.48884146     -0.00417095     -0.32008711      0.26657671      14       0      -1       0      32     -5.80021655      3.23498675      1.53318307      0.17317309      3.09425898     20.21173774     -3.92276065     -0.32657425     -5.31440751      2.78856816
 Si              3.66470477      4.16680672      2.99480108      0.04538819      0.16392239      0.02074769      14       0       0       0      29     -1.06599364     -0.16979001     -0.03816911      0.11863114      0.14341566      2.01385944     -2.04881659     -0.35308455     -3.35905140      4.38772313
 Si              5.42308920      5.36195530      3.56462445      0.12028609     -0.02361897     -0.15135523      14       0      -1      -1      30     -0.14153526      0.55066955      0.58782595      0.17143575      0.60902132      1.54148641     -0.39139390      0.17763800     -0.34681194      1.47852809
 Si              3.66259193     -0.16326345     -0.16923490     -0.26431977     -0.11587764      0.04222206      14       0       0       0      31     -1.04441248     14.60450630     -0.28260858      0.07496934     -2.40070285     -0.27221126      0.06960851     -2.54654925     -0.07006768     -0.13301125
 Si              5.46471383      0.84780168      0.63892005     -2.70881154      1.39237016      1.15426893      14      -1       0       0      30     -6.11191409     18.34203825     -4.29792425     -4.99637743     -7.19348609      5.35443658      3.30860896     -6.37336398      2.66995273      6.22243911
 Si              5.63040805      0.93351546      2.89901533      0.07811703      0.12754780      0.35366578      14      -1       0       0      30     -1.03474006      3.07802223     -1.89282660     -5.05253181     -1.98727504      0.99212031      3.27089865     -3.59904976      2.10034549      6.54804289
 Si              7.38346314      1.94201653      3.55839470     -0.09853418      0.01968210     -0.16885731      14      -1       0      -1      32     -0.16557315      2.33876758     -0.09679476      0.32613879     -0.11426938      0.35037836      0.41511748      0.37877392      0.71772809      2.00919160
 Si              5.70066802      3.02978523     -0.11127266     -0.20680381      0.70220432      0.02479542      14      -1       0       0      30     -1.14515693      1.67167451     -3.94808296     -0.34211599     -2.09348821      5.32779375     -0.11693853     -0.75475309      1.00137388      0.07460393
 Si              7.57994062      4.28647969      0.38355041     -0.00976535     -0.00185674      0.13832683      14      -1      -1       0      31     -0.23373553      2.97806159      0.96957997     -0.41894933      0.91676061      2.36930742     -0.27222373     -0.22673264     -0.12956615      0.14919691
 Si              7.50656211      4.20897563      2.83950529      0.06972017      0.02457034     -0.01810114      14      -1       0       0      29      0.00000000     -0.07432661      0.01512007     -0.05136474      0.01669330     -0.23381593     -0.01564799     -0.04040700     -0.00157630     -0.01262109
 Si              9.29547624      5.15890593      3.60977090     -0.17749979      0.03447494     -0.11051256      14      -1      -1      -1      28     -0.16510241      0.54508893     -0.46794165     -0.10627378     -0.54945711      1.44696098     -0.49412363     -0.01631730     -0.55114768      1.20886387
 Sb             -0.18585601     -0.00031096     -0.14610667      3.47081719     -1.15617171      4.85215870      51       0       0       0      31     20.96859416    -45.63641291     -0.30264002      2.53255383     -2.05889097    -48.36316114     -0.67457399      3.12153623      0.47960978    -46.24772924
 15
 config_type=Sb_vac virial="14.50543634       2.47323582       2.04930737       2.47323582      11.96269831       0.10403105       2.04930737       0.10403105       9.17995897" energy=-4.5876572805321629 cutoff=5.00000000 nneightol=1.20000000 pbc="T T T" Lattice="7.66002767      -0.15172593      -0.16564485       3.76497175       6.59058601      -0.12023145       3.70314827       2.09535347       6.18896393" Properties=species:S:1:pos:R:3:force:R:3:Z:I:1:map_shift:I:3:n_neighb:I:1:local_energy:R:1:local_virial:R:9
 Si              1.75827441      0.97359057      0.74893044      5.82280032      3.48008245      2.28164456      14       0       0       0      31     -6.41259792     16.24111609      9.64591890      5.70680916      9.68927000      8.40536858      3.93290658      7.03218647      4.73085363      6.17835162
 Si              1.69562418      0.94362794      3.07469628     -0.14699019     -0.01812373     -0.07230168      14       0       0       0      30     -1.42204161      2.12233396      1.53501473      4.15908718      1.51960486      0.76043819      2.55423305      4.58776897      2.53305377      8.61126721
 Si              3.71348560      2.05611357      3.72311619     -0.00108866     -0.16304672     -2.03496915      14       0       0      -1      28     -6.08187137      2.78891152      0.17616342      0.88575019      0.19236924      4.07837431     -1.57545948      0.48932552     -1.61913565     21.42257159
 Si              1.87361788      3.32005313     -0.13308471     -0.14819431      0.06896288     -0.11792960      14       0      -1       0      31     -1.51698820      2.13029204      3.99571446      0.14588988      5.71497067      8.77969162      0.01710483     -0.24507809     -0.72023382     -0.40447903
 Si              3.79871986      4.28191407      0.61766048     -0.14087684     -3.88112875      1.19193231      14       0      -1       0      31     -6.13655854      3.31401426      0.23256775     -0.67756512     -0.99115511     19.23351397     -5.64800946     -0.27680870     -5.42318137      4.96571494
 Si              3.67419572      4.20431490      2.96893518      0.01534732      0.20872091      0.09217743      14       0       0       0      29     -0.58591683     -0.36862240      0.02304145      0.11826290      0.14856802      1.56476725     -2.72368209      0.03258406     -2.67678175      4.15014251
 Si              5.55033320      5.22272536      3.72390005      0.13319931     -0.10213087      0.13495199      14       0      -1      -1      30     -0.14280531      0.72155924      0.28807546      0.57409798      0.30473059      1.07811724     -0.27350789      0.62686847     -0.28851733      1.68059484
 Si              3.80132027     -0.25348406     -0.34428340     -0.26579369      0.00894588      0.02386905      14      -1       0       0      31     -1.13722401     10.14059085     -0.42405875     -0.37944454     -1.84250791     -0.19393082     -0.15597424     -1.03879681      0.09064280     -0.52899092
 Si              5.57597546      0.90545454      0.50397321     -2.00382272      1.06541492      0.64484377      14      -1       0       0      30     -6.10560036     16.40156677     -7.85472740     -3.45604118     -7.15233971      8.58537601      1.97739237     -4.32200052      2.68766538      5.16547691
 Si              5.62516335      0.81448141      2.85088608     -0.06797334     -0.00436855      0.21375597      14      -1       0       0      29     -0.60468571      2.00807172     -1.14123779     -3.31631935     -1.23719985      0.22278519      2.04150478     -2.10645056      1.35829067      3.59802411
 Si              7.48350676      1.96011257      3.67829432      0.13161329      0.05467560     -0.05976012      14      -1       0      -1      31     -0.13898832      1.26683436     -0.00996970     -0.06968045     -0.01490210      0.30993276      0.33104772     -0.08160524      0.34154869      1.23502230
 Si              5.65200739      3.16175440     -0.18916104      0.18453522     -0.01914870     -0.11049194      14       0       0       0      32     -0.65997045      1.52444844     -2.29916117     -0.12393159     -2.62122652      3.79373088      0.24113628      0.09798949     -0.34511168     -0.48162418
 Si              7.38239337      4.27770084      2.80204491      0.03899608      0.01529307      0.05296087      14       0      -1       0      31      0.00000000      0.36155422     -0.02269055      0.20339331     -0.04738754      0.01765567     -0.03073071      0.20235421     -0.01154150      0.24918198
 Si              9.33434089      5.26714180      3.67296031     -0.15299703      0.00669984      0.10731813      14      -1      -1      -1      31     -0.13906448      0.70318065     -0.29950952     -0.52715128     -0.37910305      0.94428329     -0.12578968     -0.51122392     -0.15623098      1.31214622
 Sb             -0.01948462     -0.11562480      0.01408300     -3.39875477     -0.72084823     -2.34800159      51       0       0       0      29     26.49665583    -44.85041538     -1.37190546     -1.19384972     -0.81045576    -45.61740582     -0.45814102     -2.43780599     -0.39728981    -47.97344113
 15
 config_type=Sb_vac virial="8.07595722       3.88835248       1.93759656       3.88835248       9.86981410      -1.37512181       1.93759656      -1.37512181      13.19064299" energy=-4.7790564385003940 cutoff=5.00000000 nneightol=1.20000000 pbc="T T T" Lattice="7.59045304      -0.10554826      -0.12469163       3.70728535       6.55629254      -0.17470791       3.71672407       2.13243054       6.21745183" Properties=species:S:1:pos:R:3:force:R:3:Z:I:1:map_shift:I:3:n_neighb:I:1:local_energy:R:1:local_virial:R:9
 Si              1.84201921      0.89784043      0.73789888      3.49395447      1.98713605      1.64841853      14       0       0       0      29     -6.08580838     14.39837899      6.08805788      4.25291386      6.83063580      6.85453034      2.86252220      5.22600919      3.06756715      5.57074799
 Si              1.69944423      0.95172001      2.91839133     -0.04194876      0.01937161      0.36472940      14       0       0       0      28     -1.34970514      2.53909955      1.96621356      5.23640919      1.63486519      0.71169965      2.76751737      4.41757521      2.63258973      8.39731601
 Si              3.64746865      2.10749402      3.81904034     -0.00950541     -0.09186068     -3.54248423      14       0       0      -1      30     -6.15197788      2.09874867     -0.35887375      1.00417195     -0.33604246      1.77774446     -0.93569202      0.44931041     -1.23869252     22.05680200
 Si              1.73389043      3.13010905     -0.16695779     -0.20723383     -0.01665637     -0.06267239      14       0       0       0      31     -1.22403910      2.38865097      5.28380978      0.31081444      4.65986402      9.62131369      0.12883041      0.22374932      0.11980561      0.23988626
 Si              3.58042896      4.18297653      0.50662149      0.14628797     -2.86880003      0.84485287      14       0      -1       0      31     -6.13307318      1.81817213      5.91475218     -0.70580998      4.11134372     14.92546243     -5.40583814     -0.13882036     -6.23232363      5.85768899
 Si              3.53186480      4.29479653      2.84507003     -0.07980836      0.02439829      0.34005198      14       0      -1       0      31     -0.78427030     -0.15427848      0.15749175     -0.24070134      0.13896527      2.76294257     -3.78197118      0.07771438     -2.86741739      4.22102285
 Si              5.46826074      5.32177125      3.61118847      0.12582242     -0.02895733     -0.04584902      14       0      -1      -1      31     -0.14434039      0.64925821      0.57065944      0.53897689      0.56294976      1.37390293     -0.27685935      0.59223519     -0.28915381      1.88638599
 Si              3.74313988     -0.13786955     -0.17376591     -0.14884526     -0.19327261     -0.15905223      14      -1       0       0      31     -0.74465868     10.15807549     -0.74727934     -0.46058556     -0.39071810      0.01447072      0.07930438     -0.24050613      0.16160864     -0.27486318
 Si              5.47101152      1.00043766      0.57271786      0.52959221      0.09524974     -0.04095135      14      -1       0       0      33     -5.93242824     15.80974521     -4.38128746     -3.58944342     -3.02745794      2.96333475      1.92794398     -4.62604595      3.04083837      5.79439450
 Si              5.64104826      0.86123949      2.87698433     -0.14529827      0.03992867      0.24975709      14      -1       0       0      31     -0.72737051      2.82749732     -1.87289982     -4.73990694     -1.78321436      0.96113173      2.58466391     -3.67027699      2.12918226      5.77535212
 Si              7.49260543      1.93883800      3.69244049      0.07670001      0.10903868     -0.03476700      14      -1       0      -1      29     -0.14132592      1.40937647     -0.04951931     -0.03955279     -0.02945343      0.25225424      0.36504574     -0.03901610      0.35785516      1.07902409
 Si              7.50678803      4.24250170      0.40129309     -0.00974343     -0.07510740      0.13653687      14      -1      -1       0      32     -0.14942485      2.02272173      0.36245898     -0.25522455      0.37443663      1.50118253     -0.12471477     -0.10998072     -0.07695005      0.19130832
 Si              7.46982188      4.24475026      2.88044248      0.03973848      0.03742738      0.00635010      14      -1       0       0      32      0.00000000     -0.01283160      0.00470695     -0.06203634      0.00779302      0.02123420      0.01702889     -0.05156360      0.01428569     -0.08960388
 Si              9.17748417      5.29267678      3.68930617     -0.06861628     -0.05767709     -0.05861919      14      -1      -1      -1      31     -0.15361796      0.69616784     -0.77692711     -0.42156573     -0.78709301      1.50282908      0.29179594     -0.43103785      0.40505523      1.36430722
 Sb             -0.04088901     -0.11599189     -0.06677213     -3.70109596      1.01978110      0.35369857      51       0       0       0      32     24.94298409    -48.57282528     -8.27301124      1.10913688     -8.07852161    -35.37421922     -1.87469915      0.25825056     -2.59937225    -48.87912628
 15
 config_type=Sb_vac virial="10.45583942       3.35976813       1.72203298       3.35976813      10.91970670       0.56636552       1.72203298       0.56636552      18.16674264" energy=-4.4368658682566284 cutoff=5.00000000 nneightol=1.20000000 pbc="T T T" Lattice="7.65159903      -0.18377826      -0.17664566       3.72893338       6.58591921      -0.10302407       3.75678522       2.12445696       6.23225983" Properties=species:S:1:pos:R:3:force:R:3:Z:I:1:map_shift:I:3:n_neighb:I:1:local_energy:R:1:local_virial:R:9
 Si              1.81550428      0.88776682      0.69447797      3.67960526      2.07330744      1.64794070      14       0       0       0      31     -6.49662023     23.76577029      6.85371181      5.87871245      9.44648722      6.61442030      3.65606224      7.31037512      3.23008321      6.31166611
 Si              1.79063448      0.87603196      3.00323167     -0.08487400     -0.10909392      0.23046184      14       0       0       0      30     -1.18951275      2.99595332      1.96374148      4.94827304      2.09535933      1.22679573      3.02640224      4.43995159      3.13536580      7.59535116
 Si              3.57911000      1.97614992      3.85629223     -0.11168549     -0.13908889     -5.41020916      14       0       0      -1      29     -6.45567889      3.60432607      0.27055222      1.16262991      0.03908813      3.31239050      1.47538062     -1.89013128      3.65107643     28.69093972
 Si              1.83238389      3.25349789     -0.10303162     -0.04607639     -0.07160380      0.04794789      14       0       0       0      30     -1.35179962      2.91908291      5.35535224     -0.06130955      5.71898316     10.59394238     -0.49659126     -0.43605345     -1.13235682     -0.04004592
 Si              3.76728257      4.31630501      0.68529213     -0.00616692     -2.93974901      1.03915394      14       0      -1       0      30     -6.19722711      1.76040871      0.72659840     -0.82603322     -4.03936424     21.81166904     -7.64501990      1.13662394     -8.12322982      4.87516307
 Si              3.65883051      4.26186352      3.06715886      0.04902383      0.15334253      0.02447938      14       0       0      -1      30     -1.03024169     -0.27297477     -0.08827252      0.26271344      0.09498758      2.55621155     -3.02524562     -0.09404070     -3.70630832      4.51543450
 Si              5.48490289      5.24413937      3.67799071     -0.00236583     -0.03444656     -0.23704982      14       0      -1      -1      28     -0.15213817      0.64726567      0.49833944      0.32639250      0.66755689      1.23002440     -0.37382882      0.27762727     -0.39815999      1.58061089
 Si              3.65384095     -0.09459839     -0.19252759      0.25246800     -0.15506966     -0.01737588      14       0       0       0      32     -0.93844588     13.07762443     -0.58336364     -0.74675238      2.32859641     -0.24610883     -0.05549367      1.77296198     -0.06138064     -0.33107952
 Si              5.58799416      0.95371595      2.94266986     -0.06523746      0.06642781      0.17521991      14       0       0       0      32     -0.80698544      1.21373995     -0.93062763     -2.70895024     -1.10639601      0.28825193      1.86427948     -5.02679369      2.93272199      7.20278010
 Si              7.60224729      1.90456232      3.61378990      0.17353420      0.07505649      0.08395524      14      -1       0      -1      30     -0.17559430      1.94441712     -0.03256999      0.64003216      0.07267397      0.33351511      0.54469145      0.58882135      0.48250815      1.68286099
 Si              5.64429089      2.99307513     -0.14630267      0.25823856     -0.21435613     -0.05134523      14      -1       0       0      32     -0.84170020      1.43227075     -3.06631012     -0.16397282     -4.04802422      6.31388595      0.37206939      0.37959011     -0.59178700     -0.35367032
 Si              7.59643094      4.25034871      0.54880776      0.10876752      0.20859215      0.07515454      14      -1      -1       0      29     -0.17318266      1.30671393      0.43111962     -0.22809004      0.51349198      1.73017744     -0.03215468     -0.15873760      0.09413260      0.09693349
 Si              7.52559039      4.10460300      2.86494758     -0.00634641     -0.02962084     -0.02152141      14      -1       0       0      29      0.00000000     -0.01368998      0.05394721     -0.02458073      0.07455848      0.05416776     -0.00795844     -0.03191476     -0.00550465      0.05412686
 Si              9.36232328      5.20772363      3.74933893     -0.07533584     -0.12108124     -0.03027253      14      -1      -1      -1      31     -0.16150421      0.74710326     -0.60795380     -0.13908303     -0.68116631      1.38039101     -0.32906265     -0.14813447     -0.27749286      1.29036853
 Sb             -0.12392301     -0.01493505     -0.12432522     -4.12354903      1.23738361      2.44346058      51       0       0       0      31     21.53376528    -44.67217224     -7.48449660     -6.59794850     -7.81706422    -46.28002757      1.59283514     -6.39811244      1.33669744    -45.00469702
 15
 config_type=Sb_vac virial="12.28174261       2.14244056       1.11586245       2.14244056      10.56799075      -0.57352395       1.11586245      -0.57352395      10.12412909" energy=-5.0528402619080097 cutoff=5.00000000 nneightol=1.20000000 pbc="T T T" Lattice="7.61805436      -0.19979767      -0.11753905       3.78045361       6.59831340      -0.16141200       3.69813979       2.13685687       6.19679335" Properties=species:S:1:pos:R:3:force:R:3:Z:I:1:map_shift:I:3:n_neighb:I:1:local_energy:R:1:local_virial:R:9
 Si              1.89924125      0.93954331      0.60879344      3.68173796      2.10481043      1.37256872      14       0       0       0      30     -6.24344876     16.23091099      6.56081309      3.63741156      7.64907074      7.23214794      2.64865002      4.54234062      2.75658956      4.40252251
 Si              1.73190560      0.98096027      3.09769823     -0.19027885     -0.10619265      0.06866310      14       0       0       0      28     -1.36507067      2.31455216      1.43704746      4.29301428      1.65146727      0.39279025      2.51907788      5.44245338      2.79271667      8.68002465
 Si              3.60327925      1.96276297      3.78777082     -0.10171915     -0.09640326     -2.88110128      14       0       0      -1      28     -6.02057255      3.33759823     -0.08504809      0.98999568     -0.14823034      3.67790719      0.49034380     -0.05070258      1.04191434     21.54330307
 Si              1.80344353      3.29779528     -0.13260051     -0.16893301     -0.07001564     -0.07071001      14       0      -1       0      30     -1.21749000      2.50587195      4.64097990     -0.01397310      4.72466110      8.82975181     -0.23980626     -0.32070764     -0.72719138     -0.38520965
 Si              3.80244308      4.26258024      0.61071487      0.18484715     -2.95159356      0.83750866      14       0      -1       0      31     -6.11998661      1.18449198      4.62533440     -0.71631485      2.63972596     14.80674688     -5.76655993      0.01282248     -6.68866953      5.19801505
 Si              3.51613146      4.19651901      3.00074218     -0.01545786      0.17676528      0.00246591      14       0       0       0      30     -0.72110290     -0.23069914     -0.22272967      0.20755153      0.08954320      2.10352940     -2.50112055      0.23965585     -3.57624809      4.82219671
 Si              5.44888967      5.34880068      3.71557351      0.13311331      0.01883809     -0.00047488      14       0      -1      -1      29     -0.14250619      0.63277227      0.40060705      0.38482843      0.43571273      1.14949169     -0.33900726      0.39121117     -0.33439127      1.45855499
 Si              3.67345632     -0.17295863     -0.31750367      0.10865309     -0.16215361     -0.14343820      14      -1       0       0      30     -0.69025507      8.58354307     -1.04112312     -0.25586431     -0.14603300      0.06665081     -0.04669392     -0.38461795      0.27534079     -0.29455007
 Si              5.45412460      0.79747680      0.61286339     -1.42396827      0.94825708      0.54046850      14      -1       0       0      31     -5.92966091     19.44937923     -3.70274920     -4.16442385     -4.03667479      1.75763145      2.55415206     -5.21274454      2.95342579      5.74415593
 Si              5.51372495      0.85377305      3.00729826      0.02167652     -0.04373052      0.09921201      14       0       0       0      30     -0.52005471      1.45295180     -0.88576991     -1.96825155     -0.85221174      0.27674787      1.10795212     -2.28034267      1.60411135      3.37568515
 Si              7.47157475      1.90561310      3.59882363      0.11590678      0.06111195     -0.05268428      14      -1       0      -1      29     -0.16584790      1.22474464     -0.01150512      0.06896592     -0.04816908      0.35846984      0.50260989     -0.06363146      0.62259792      1.52973150
 Si              7.52577118      4.30005170      0.41061753     -0.00284883      0.18030772      0.11684244      14      -1      -1       0      30     -0.14331996      2.15304563      0.16677350     -0.17344802      0.34519306      1.81743416     -0.07383486     -0.09227323     -0.05460517      0.00883051
 Si              7.36533030      4.13141632      2.88204535      0.02747973     -0.03017983      0.05094819      14       0       0       0      29      0.00000000      0.27484716     -0.02517836      0.15950793     -0.04372142      0.05588952      0.01554265      0.16567539      0.05233272     -0.00110877
 Si              9.22885308      5.16131591      3.73668234     -0.05262309     -0.08870850     -0.00544805      14      -1      -1      -1      32     -0.14081813      0.57145249     -0.58087829     -0.13292496     -0.62998777      1.08827925      0.03627291     -0.11114308      0.09561067      1.05488348
 Sb             -0.05411198     -0.06187873     -0.02882797     -2.31758549      0.05888703      0.06517916      51       0       0       0      29     24.36729411    -47.40371983     -9.13413307     -1.20021225     -9.48790537    -33.04547731     -1.48110252     -1.16213330     -1.38705833    -47.01290596
 15
 config_type=Sb_vac virial="6.11927034       2.27899565       1.21192856       2.27899565      10.34408931      -0.67077355       1.21192856      -0.67077355      14.05355044" energy=-4.7667886042681538 cutoff=5.00000000 nneightol=1.20000000 pbc="T T T" Lattice="7.63160824      -0.12744168      -0.17789361       3.69539915       6.58547695      -0.15085516       3.76142793       2.04584075       6.14758152" Properties=species:S:1:pos:R:3:force:R:3:Z:I:1:map_shift:I:3:n_neighb:I:1:local_energy:R:1:local_virial:R:9
 Si              1.86671802      1.01011283      0.65709041      2.61079210      1.63942620      1.22857847      14       0       0       0      29     -6.16562812     13.63697714      7.09711642      3.55866564      7.40534494      8.40500597      2.47584983      4.34537035      2.83846775      5.00625002
 Si              1.73099730      0.93552678      3.00290567     -0.13596969     -0.06961163     -0.05099912      14       0       0       0      32     -1.54438594      2.93296435      1.96206306      5.32861038      2.09195301      1.01849288      2.98762480      5.09253463      2.19159578      8.53891525
 Si              3.69924486      2.02143684      3.79215025     -0.17212146      0.31376252     -5.11264400      14       0       0      -1      32     -6.24787801      2.48165443     -0.48471757     -0.35721267     -0.42719993     -0.10207506      3.71146885     -0.57830338      1.69329365     20.80932403
 Si              1.77199778      3.16595894     -0.20410328     -0.07061810      0.11617272     -0.08368540      14       0       0       0      32     -1.15049836      2.65763904      5.84737353      0.14193206      5.33560317      9.74888509     -0.13933525      0.35196798      0.34486974      0.34445490
 Si              3.69291123      4.21872785      0.58081764     -0.00108002     -2.66550000      1.21069105      14       0      -1       0      31     -6.18498106      3.44904443      1.04661480     -0.42099038      0.11376047     17.46724940     -2.42667260     -0.08058357     -1.26868038      0.00465298
 Si              5.43158516      5.24222583      3.55223963      0.10520297     -0.10696059      0.10410089      14       0      -1      -1      31     -0.16093807      0.84847964      0.19204112      1.07961580      0.39159153      1.31898717     -0.53680327      1.03210738     -0.81727715      2.77689289
 Si              3.70954483     -0.10373896     -0.32018278      0.11799849     -0.17932694     -0.17820759      14      -1       0       0      28     -0.71799469      8.60656916     -0.48982593     -0.02742364     -0.37085702     -0.06985828     -0.01860639     -0.03085130      0.26364933     -0.03187577
 Si              5.51060432      0.97782479      0.43851730      0.23040522     -0.02738575      0.21128235      14      -1       0       0      29     -5.85343148     18.15677686     -8.11343110     -2.71894683     -7.13673392      9.41801801      1.51193984     -3.55694224      2.33645445      3.83402615
 Si              5.60476811      0.90295976      2.95886686      0.10517625     -0.10288378     -0.02474316      14       0       0       0      32     -0.93276546      2.24474516     -1.31919178     -3.18883809     -1.40139842      0.66555878      1.83567990     -3.34556530      1.64929054      5.09201513
 Si              7.55223324      1.93814356      3.48292845      0.10292264      0.04106794     -0.07850886      14      -1       0      -1      29     -0.15589247      1.26870097     -0.04658386     -0.01857689     -0.09702585      0.34085090      0.47364436     -0.08705767      0.64111379      1.52898825
 Si              5.53122158      3.16649130     -0.27306662      0.18242185      0.06545078     -0.15516224      14       0       0       0      32     -0.41082019      0.65577388     -1.13757022     -0.15674122     -1.71811542      2.43193225      0.09889379     -0.01435488     -0.33373661     -0.05671406
 Si              7.59031712      4.26307454      0.47344947      0.14833207      0.09300452      0.06643354      14      -1      -1       0      30     -0.16899765      1.91784470      0.21777847     -0.21511526      0.28288801      1.15374803     -0.18668739     -0.15871106     -0.16558489      0.12466005