 15
 config_type=Sb_vac_migration virial="7.98445946      -3.10849097      -1.82309378      -3.10849097       6.44044185       0.35496922      -1.82309378       0.35496922      12.76114292" energy=-5.5214386042852190 cutoff=5.00000000 nneightol=1.20000000 pbc="T T T" Lattice="7.61361354      -0.13863694      -0.10402507       3.75292396       6.57306378      -0.18057007       3.74055456       2.11240234       6.23324272" Properties=species:S:1:pos:R:3:force:R:3:Z:I:1:map_shift:I:3:n_neighb:I:1:local_energy:R:1:local_virial:R:9
 Si              1.51655044      1.10702677      3.01035803     -0.04770409      0.08175200      0.31554915      14       0       0       0      30     -1.11047772      0.46434457      0.64147317      1.79777100      0.90002759      0.50526176      1.80244775      4.29091246      2.71479334      7.86153897
 Si              3.47065513      1.86873489      3.82963732     -0.09089505     -0.27911790     -2.78538669      14       0       0      -1      29     -5.85856385      4.59562736      0.67665248      1.41568502      0.78637644      3.33180613      1.00828426      5.52078061      4.46110191     24.84435661
 Si              1.64274724      3.23635356     -0.19128656      0.00980811     -0.10674975      0.03322748      14       0       0       0      31     -1.00992011      0.54619274      0.71959292      0.00107320      3.96877582      7.99564563     -0.38142628     -0.94763978     -1.69910197      0.10314346
 Si              3.61769118      4.21798309      0.53092746      0.19102601     -0.39260209      0.18479441      14       0      -1       0      30     -5.58673074      2.24872928      3.24578171      0.14395680      6.17279217     16.42478950     -2.38918731     -0.93705867     -4.35617221      0.61087851
 Si              3.72162238      4.12005324      3.13262069      0.07099577      0.48324002     -0.52123409      14       0       0      -1      30     -1.18763032     -0.21069075     -0.22510009      0.47276546      0.01603653      2.05390020     -2.49463740      0.18841560     -4.98333445      7.48110785
 Si              5.42180697      5.36859947      3.50433702      0.18461286      0.07846094      0.07515813      14       0      -1      -1      30     -0.17129284      0.45199131      0.14810401      0.51213667      0.32586880      0.95545937     -0.54681628      0.45171691     -1.04333906      2.11703267
 Si              3.63212588     -0.25692193     -0.14627565     -0.26057588     -0.10721199     -0.06477721      14       0       0       0      32     -0.90220202      6.99285575     -1.17235954      0.00090617     -2.82415169     -0.51670363      0.01114111     -1.89072322     -0.06780511     -0.29211078
 Si              5.47585884      0.78006152      0.56114527     -2.38057430      1.22595506      1.02539834      14      -1       0       0      31     -5.79306093     20.88175535     -3.16242565     -4.63793147     -7.43808482      5.30451485      2.53105366     -7.22299662      2.08621983      4.85537588
 Si              5.60111211      0.92058437      3.02005340      0.08732651     -0.03030071     -0.09298088      14       0       0       0      29     -0.86927292      2.93779971     -1.34278726     -3.51403842     -1.63609135      0.79786980      2.28825025     -3.69388411      2.40247981      6.33266017
 Si              7.39825962      2.08503957      3.66629088      0.05504874      0.04448697     -0.07462503      14      -1       0      -1      29     -0.15166782      1.38277282      0.09916954     -0.31197455     -0.02739743      0.22148274      0.22600097     -0.40015736      0.28834309      0.89961437
 Si              5.94269668      3.04165737     -0.08526150     -0.35551597      0.65923783      0.12304697      14      -1       0       0      31     -1.28902875      3.66628801     -5.98886324     -0.15076546     -4.22880192      9.38740177     -0.05764110     -0.56715344      0.89151229     -0.30684669
 Si              7.58058982      4.33281220      0.52160315      0.10108152      0.03687652      0.06339895      14      -1      -1       0      29     -0.14188170      1.68092007     -0.33353872     -0.05009756     -0.20581657      1.48947456     -0.16858719     -0.06788903     -0.17669298      0.18028302
 Si              7.48225600      4.20676699      2.87284336     -0.02895778     -0.02291757     -0.05501894      14      -1       0       0      29      0.00000000      0.10575223      0.08007053     -0.03898639      0.10526982     -0.14189261     -0.01489528     -0.02037923     -0.01658478      0.14720877
 Si              9.28597912      5.04938459      3.58564703     -0.13447275     -0.05653239     -0.10855878      14      -1      -1      -1      29     -0.15435909      0.69253204     -0.54916142      0.36861642     -0.62263989      1.35834331     -0.80785532      0.42495201     -0.85212464      1.02819049
 Sb              0.03253844      0.06784921     -0.07304621      2.59879631     -1.61457694      1.88200817      51       0       0       0      31     18.70465021    -38.45241104      4.05490062      2.16778932      1.59934553    -42.72691153     -0.65116261      3.04801010      0.70567417    -43.10129038
 15
 config_type=Sb_vac_migration virial="4.75491358       0.31852165       1.80942415       0.31852165       2.30553972      -0.85202298       1.80942415      -0.85202298       4.51401290" energy=-6.0668795683586332 cutoff=5.00000000 nneightol=1.20000000 pbc="T T T" Lattice="7.50834601      -0.13912712      -0.10270589       3.78632802       6.56555524      -0.17832623       3.76248996       2.13448708       6.15540671" Properties=species:S:1:pos:R:3:force:R:3:Z:I:1:map_shift:I:3:n_neighb:I:1:local_energy:R:1:local_virial:R:9
 Si              1.45823816      0.92205414      2.98979085     -0.35701076     -0.03932782      0.09712128      14       0       0       0      32     -2.10008088      1.91135380     -0.20465594      1.26282725     -0.21091485      1.41345495      0.94603076      3.45832346      2.53170881     11.16968430
 Si              3.68763435      1.82420252      3.61314085      0.45852572      0.29377779      0.00529575      14       0       0      -1      32     -3.89092087      0.71013955     -0.48171191     -1.42126172     -0.35899333      2.39509087     -1.17900796      3.41106675      2.97983786     16.07662999
 Si              1.83884037      3.31437380     -0.34938991     -0.52736800     -0.69328949     -0.17403438      14       0      -1       0      32     -1.35640006     -1.02679768     -1.14594804     -0.61213595      0.54990466      4.05285885     -1.59096429     -1.24663917     -2.62092236      0.46806952
 Si              3.73066153      4.12084951      0.42138226      0.32434503      0.10691201      0.16474080      14       0      -1       0      32     -3.92531133      1.64370947      1.33130174     -0.71174897      2.58063185     17.37127256     -2.70939504     -1.38679533     -4.98009873      2.67459643
 Si              3.65442989      4.22414393      2.93152673     -0.23166527     -0.06198980     -0.22434345      14       0       0       0      29     -0.07905117      0.53893775      0.45897760      0.96814911      1.42454495      1.12813174     -0.24786440      1.12536681     -0.84885356      2.08517352
 Si              5.23828473      5.26264596      3.44350835      0.38979570     -0.09868686      0.09611243      14       0      -1      -1      34      0.09891845      0.41235580     -0.06512559      1.87812711      0.69173899     -2.30383599      3.69965067      2.18378341      1.65521170      0.28862269
 Si              3.59938844     -0.14851928     -0.38807612     -0.23496686     -0.07646380     -0.07312758      14      -1       0       0      31     -2.07385464      6.68460680     -0.21856090     -1.48999116     -3.52969045      0.28352864      0.16856515     -1.09344515     -0.38873667      0.79004455
 Si              5.22037632      0.85707698      0.40337195      0.67550785      0.28760290      0.30337399      14      -1       0       0      35     -3.39538925     14.23074771     -4.92467228     -3.68111809     -7.57687933      6.00490301      1.37973838     -4.78084828      1.34220726      3.53598817
 Si              5.78002144      1.06396079      2.82654249      0.18747342     -0.15364896     -0.32206390      14      -1       0       0      31     -0.21423771      1.57420839      0.33451838      0.18171512     -0.83578967     -0.24197184      0.63739315     -1.00819513      0.01477066      0.47487154
 Si              7.30458036      1.79520491      3.37911757     -0.07176992      0.05646313     -0.09064460      14      -1       0      -1      31      0.39836825     -0.14135196      0.96214151      1.77457817      0.80886648      0.26115267      1.21726246      1.54035723      2.28856875      2.47946205
 Si              5.74371734      3.07056745     -0.04837661     -0.13234620      0.22179098     -0.13932131      14      -1       0       0      30      0.08825196      2.45350611     -0.81775955      0.18702053     -0.70193368      1.55355721     -0.30353542     -0.36279002     -0.08946405     -0.37009698
 Si              7.38828259      4.26538743      0.29103962      0.15984714     -0.21572491      0.21510274      14      -1      -1       0      29      0.07291279      0.39482399      1.22383935      0.09347858      3.13344679     -7.41766100     -0.01935223     -0.79043111      0.11145563     -0.41415812
 Si              7.41047337      4.28642674      2.74696163      0.13822495      0.02360418      0.14768035      14       0      -1       0      29     -0.06007214      0.40733326      0.06570523      0.31304753     -0.06121961      0.13630661     -0.12429110      0.27377090     -0.13851245      0.31844515
 Si              9.40524098      5.13393108      3.62719870     -0.15860995     -0.04956041     -0.00490538      14      -1      -1      -1      28     -0.14568778      0.93397450     -0.20044398      0.10346204     -0.10029638      1.33387864     -0.29057811      0.23063566     -0.23352245      0.65318203
 Sb              0.45390622      0.21445147      0.12846072     -0.61998284      0.39854106     -0.00098674      51       0       0       0      33     10.51567482    -25.97263392      4.00091602      2.96327458      4.50510521    -23.66512721     -2.43567499      0.25526412     -2.47567338    -35.71650193
 15
 config_type=Sb_vac_migration virial="4.54106360       1.23395558       0.43869663       1.23395558       4.62648570      -0.37113816       0.43869663      -0.37113816      10.15851589" energy=-6.0115649009201100 cutoff=5.00000000 nneightol=1.20000000 pbc="T T T" Lattice="7.53538796      -0.13997823      -0.10272809       3.76458072       6.53872775      -0.18040498       3.72348227       2.10102341       6.19593435" Properties=species:S:1:pos:R:3:force:R:3:Z:I:1:map_shift:I:3:n_neighb:I:1:local_energy:R:1:local_virial:R:9
 Si              1.72403786      0.90389346      2.95423807     -0.28574114      0.01652294      0.03454267      14       0       0       0      30     -2.29115574      1.39430927      0.14163766      1.03707923     -0.26189175      1.60787960      1.12624302      5.37191236      4.18457208      9.93641744
 Si              3.49269339      1.94408630      3.79633939      0.28781265      0.15946954     -0.75129731      14       0       0      -1      32     -4.05725208      1.37248210      0.03879316      0.56253234     -0.10325519      2.25262193     -1.34988114      6.19196503      2.56359291     16.90704019
 Si              1.75344709      3.18179463      0.00798903     -0.40920831     -0.17880204     -0.31159942      14       0       0       0      32     -2.27136119      0.38353404     -0.24054365     -0.49296422      3.82766162      7.70977393     -0.15915034     -0.76035366     -0.52040563     -0.84752507
 Si              3.62212335      4.12329953      0.58943862      0.33243047     -0.01705235      0.19693949      14       0      -1       0      31     -3.66881597      1.77797984     -1.00078797     -0.63561996      2.70031411     15.28703725     -3.23141401     -1.95106186     -5.32494153      2.69817424
 Si              3.67411419      4.15879805      2.99551279      0.00297990      0.13657719     -0.14156257      14       0       0       0      30      0.07825294      0.49757815     -0.52329333      1.89922420      0.66650970     -0.70036614      1.66701835      1.51763083      0.28082707      1.97036314
 Si              5.43762375      5.40014008      3.46106953      0.33830226     -0.01769720      0.23369805      14       0      -1      -1      31      0.18740641      0.64613198      0.22520121      1.32544506      0.94767316      0.06523808      0.84440321      1.38863065     -1.28296845      2.70704821
 Si              3.54660081     -0.26245162     -0.19761635     -0.11994116      0.19366764      0.08740906      14       0       0       0      32     -2.36302262     10.57922141     -1.02178322     -0.37775844     -2.63264453     -0.13133317     -0.26143986     -1.75813897     -0.18930795     -0.28327932
 Si              5.32575368      0.97192393      0.58936211      0.97647096      0.25096215      0.12167075      14      -1       0       0      32     -3.54748087     13.24230519     -5.70570084     -3.79380037     -7.99986992      4.62854635      1.19436711     -6.07285440      1.46261470      3.68040872
 Si              5.68955722      0.91723506      2.87953772     -0.19132024      0.04356952      0.10767088      14      -1       0       0      31     -0.15191919      4.07856899      0.48495460     -1.59567686     -1.37875852     -0.01064440      2.02503960     -2.30458919      0.67938367      2.90293835
 Si              7.31817002      1.96362775      3.41082965     -0.16490272      0.00017635     -0.14330166      14      -1       0      -1      30      0.15381733     -0.03924257      1.25586865      2.04579323      1.00325767     -0.27702195     -0.21405324      1.14887943      1.70545775      1.47680971
 Si              5.65741353      3.18436903      0.10312757     -0.16390764      0.07741172      0.12166363      14       0       0       0      29      0.30529997      3.04826047     -0.75641772      0.15242362     -1.69170658      4.19657267     -0.58285553     -0.37321221     -0.22046438     -0.30504730
 Si              7.49760523      4.06766851      0.49740678     -0.10315162      0.30365988      0.03765232      14      -1      -1       0      30      0.33864505     -1.23257661      4.02326267      0.23677764      2.90342598     -4.35218765      0.24041895     -0.09729478     -0.48538828     -0.56370016
 Si              7.46699391      4.30822059      2.99523358     -0.03976889     -0.03179694      0.07814870      14       0      -1      -1      28      0.00000000     -0.02258104      0.15395723     -0.01809478      0.06369612     -0.09794756      0.11066432      0.00855536      0.09390454     -0.06556399
 Si              9.17858309      5.25305156      3.71909520      0.06826220     -0.15275168      0.05854637      14      -1      -1      -1      29     -0.15084181      0.86273124     -0.21463298     -0.11530851     -0.29940452      1.00740819      0.34180434     -0.15441517      0.40643634      1.24614448
 Sb              0.47111052      0.27492663      0.16355947     -0.52831673     -0.78391673      0.26981905      51       0       0       0      33     11.42686287    -32.04763886      4.37344011      0.20864446      3.48894824    -26.55909145     -2.12230295     -1.71695681     -3.72445099    -31.30171276
 15
 config_type=Sb_vac_migration virial="4.91329199       0.22466061       0.80867154       0.22466061       5.99405827      -1.05872847       0.80867154      -1.05872847       7.19543696" energy=-5.9882916602690770 cutoff=5.00000000 nneightol=1.20000000 pbc="T T T" Lattice="7.59447999      -0.13839283      -0.10224983       3.79294993       6.63733109      -0.17842435       3.74777213       2.12899528       6.22482047" Properties=species:S:1:pos:R:3:force:R:3:Z:I:1:map_shift:I:3:n_neighb:I:1:local_energy:R:1:local_virial:R:9
 Si              1.64782756      0.90116532      2.81666633     -0.31446221     -0.25635342     -0.43359491      14       0       0       0      31     -3.04683506      1.91824698      0.36842244      3.38180735     -0.44062717      2.55179581      1.24932325      7.46249609      5.33891097     13.92688644
 Si              3.56372507      1.98072554      4.02596027      0.47891757      0.13309256      0.28123226      14       0       0      -1      32     -4.73081541      1.32369487      0.28098505      0.51750451      0.20482495      1.66519600     -1.30422990      7.21562357      3.20605245     18.56073382
 Si              1.65693840      3.20545850     -0.01102249     -0.11467063     -0.30001479     -0.10982676      14       0       0       0      31     -2.63707173      1.24572525      3.53749979     -0.38803749      4.76846953     10.13287995     -0.37534597     -1.12738453     -2.14637427     -0.29857063
 Si              3.66166922      4.21149275      0.45640301      0.60780655      0.24943286      0.06044630      14       0      -1       0      32     -3.93995225      0.24798192     -0.73352243     -0.71384194      2.56122287     15.23109644     -1.30174718     -1.84589400     -3.93333431      0.84160153
 Si              3.76867087      4.17740361      3.02714206      0.11747114     -0.00869207     -0.02101784      14       0       0      -1      29     -0.23773742      0.39723586     -0.18158398      1.96749757      1.04217356     -0.23843776      0.99274098      1.23813769     -0.54572168      3.06737084
 Si              5.52130615      5.30430461      3.30131852      0.09477936     -0.03741622      0.01053322      14       0      -1      -1      29     -0.14036442      0.96428913     -0.45956850      2.29776268      0.45514853     -0.66308812      0.50931018      2.56572145     -2.22914147      5.66636626
 Si              3.82403994     -0.08849158     -0.26422108     -0.57663307     -0.25095806      0.03547103      14      -1       0       0      31     -1.81789205      3.84796932     -0.85976576     -2.92711103     -4.16868419      0.85770040      0.34303766     -2.55810672     -0.24703046      0.64041316
 Si              5.49077712      0.89354962      0.52163399      0.06424088      0.27105492      0.12426167      14      -1       0       0      30     -4.20027261     15.69134880     -2.84045274     -1.80136278     -7.76899800      4.20526116     -0.15942334     -5.94661536      0.23374104      2.77496405
 Si              5.72527318      0.95301764      2.96914752     -0.19155889      0.02665675      0.27337310      14      -1       0       0      29     -0.53789491      4.33071036     -0.02706407     -2.77335310     -1.42351598      0.10843484      2.37311336     -2.91827776      1.39360676      3.35570055
 Si              7.54336738      1.97714736      3.62755028     -0.14410223      0.06627597      0.27960487      14      -1       0      -1      31      0.30294828     -0.14824637      1.53850268      3.09092747      1.26644582     -1.09130535     -2.22148217      2.06379566     -0.36487289     -2.10473053
 Si              5.74971146      3.17664287     -0.29987245     -0.26764438     -0.02113065      0.00353197      14      -1       0       0      28     -0.04741087      2.77537265     -0.78946942      1.00936159     -0.03270043     -1.05615670     -0.24497000      0.12140349     -0.44124996     -0.86865676
 Si              7.48142505      4.47916369      0.34770905      0.08815989      0.18247844      0.01701150      14      -1      -1       0      30      0.12424760     -0.20515512      1.17070935      0.41559238      2.60941798     -2.87869184     -0.08068775     -0.61474671      0.37127320     -0.33077666
 Si              7.55258876      4.40946141      2.88414249     -0.01132850      0.14506997     -0.06908614      14       0      -1       0      28      0.00001265      0.23508953     -0.05838710     -0.00698674     -0.11402503      0.37592089     -0.24456625      0.02937374     -0.08986666      0.25173294
 Si              9.25210647      5.36723438      3.66901501     -0.20633139      0.21112423      0.07548260      14      -1      -1      -1      28     -0.15749974      0.64211874     -0.11806476     -0.04898227     -0.12170341      0.92991689      0.09910041     -0.04637591      0.18342822      0.80706878
 Sb              0.52730759      0.30723779      0.21968310      0.37535590     -0.41062048     -0.52742285      51       0       0       0      33     15.07824627    -28.35308993     -0.60357992     -3.21210666      1.38721158    -24.13646436     -0.69290178     -4.83047915     -1.78814940    -39.09466683
 15
 config_type=Sb_vac_migration virial="5.26817252      -2.00732222       0.91824038      -2.00732222       4.90235023       0.54824477       0.91824038       0.54824477       5.11783745" energy=-5.9963975439367410 cutoff=5.00000000 nneightol=1.20000000 pbc="T T T" Lattice="7.54623411      -0.13986239      -0.10309648       3.74947689       6.58446472      -0.18044236       3.75846414       2.11150272       6.16956216" Properties=species:S:1:pos:R:3:force:R:3:Z:I:1:map_shift:I:3:n_neighb:I:1:local_energy:R:1:local_virial:R:9
 Si              1.71071286      0.95913552      2.92235034     -0.53556390     -0.31531243     -0.32163821      14       0       0       0      31     -3.04366407      1.11589660     -0.05088494      3.06889274      0.08384490      1.76763536      2.20793247      7.18983111      5.04808554     13.39719638
 Si              3.71040529      1.82614477      3.85600035      0.20992650      0.03170541      0.45762548      14       0       0      -1      31     -3.72297078      1.06529077     -0.05514554     -1.63398079     -0.27743235      2.35796625     -1.35188785      5.01636211      3.78657137     14.52583404
 Si              1.76605470      3.18995970     -0.26358003     -0.35189617     -0.44177198      0.11026345      14       0       0       0      31     -2.09455090      0.54982830      1.34328884     -0.65687646      2.10340288      8.88480707     -2.50791508     -0.78502973     -2.35873411      0.92431942
 Si              3.59191897      4.16432478      0.52751510      0.18190427     -0.20137478      0.19675192      14       0      -1       0      31     -3.95681303     -0.56831606      2.25253948     -1.08697740      4.84073808     14.37063778     -1.62891139     -2.62284382     -5.52354460      1.13996077
 Si              3.74595505      3.94470337      2.97459457     -0.12873545      0.09305899      0.01285950      14       0       0       0      30      0.29384940      0.34780770      0.30956451      0.62795662      1.54546891     -0.09161285      3.27465329      0.17994251      1.82764278     -2.22676152
 Si              5.51268602      5.36457282      3.62403424      0.10464708     -0.07115808      0.00268287      14       0      -1      -1      30     -0.11140553      0.86062131      0.01948639      1.68663156      0.45255818     -0.83050212      1.72709030      2.66912522     -0.38878277      4.54781106
 Si              3.58109531     -0.34380086     -0.17329262     -0.22419503     -0.02976537      0.05827564      14      -1       0       0      32     -2.68436427     12.04292304     -0.41018372     -1.69235837     -4.44621475      0.58919527      0.43218954     -1.01820523     -0.40081613      0.50034088
 Si              5.32138803      0.90432003      0.50909498      0.63086296     -0.01271702      0.32009721      14      -1       0       0      32     -2.99011737     11.37437637     -3.45267933     -2.33836086     -7.33394959      4.38079135      0.44073755     -4.52921547      0.81417007      2.36914886
 Si              5.60948659      0.98245322      3.07689296      0.18993038     -0.04726023     -0.16341496      14       0       0      -1      30      0.25510528      2.00797061      0.91522671      0.68904684     -0.72504205      0.25847618      1.44298171     -0.63725499      0.86903504      3.55793221
 Si              7.50124728      1.95290648      3.38082257     -0.17295724      0.09767449      0.01512305      14      -1       0      -1      30     -0.07711320      0.80032865      0.40627781      0.51041599      0.67761210      1.14994926      1.95900992      0.11380253      3.99756103      5.48261687
 Si              5.60373186      2.85885993     -0.01326713     -0.10930617      0.29208420     -0.02850933      14      -1       0       0      29      0.39600663      3.20997767     -1.14648221      0.63432488     -0.66669120      1.09620917     -0.49586340      0.16032799     -0.72023062     -0.68233852
 Si              7.51532671      4.23172708      0.50709338      0.12796828     -0.03449623      0.04535172      14      -1      -1       0      30      0.26665959     -0.25592506      1.61751962      0.06525987      2.94425797     -4.90949904      0.21937765     -1.07505335      0.47082738     -0.29204129
 Si              7.49341632      4.35760494      2.92631161     -0.08913191      0.17788307     -0.07379314      14       0      -1       0      28     -0.05199408      0.17545972     -0.03570613      0.07634335     -0.16370927      0.52712377     -0.07524644      0.18036695      0.02461959      0.32087088
 Si              9.48940799      5.33473204      3.47403384      0.07990183      0.19132492     -0.33566176      14      -1      -1      -1      28     -0.12470718      0.31804541     -0.07518243     -0.02071989     -0.00229685      0.57674989     -0.11242349      0.19828676      0.06541069      1.15876684
 Sb              0.62847034      0.15204434      0.37623918      0.08664460      0.27012503     -0.29601344      51       0       0       0      33     11.64968196    -27.77611252     -3.64496127      0.98864231     -1.03986919    -25.22557711     -4.98348002     -4.12220221     -6.96357049    -39.60581942
 15
 config_type=Sb_vac_migration virial="6.91855924       0.97182977      -0.48588025       0.97182977       3.19082854       1.22672920      -0.48588025       1.22672920       6.68447546" energy=-5.9560447645368164 cutoff=5.00000000 nneightol=1.20000000 pbc="T T T" Lattice="7.59736528      -0.13864535      -0.10256182       3.78166038       6.56409439      -0.17899985       3.75223395       2.10039794       6.22224109" Properties=species:S:1:pos:R:3:force:R:3:Z:I:1:map_shift:I:3:n_neighb:I:1:local_energy:R:1:local_virial:R:9
 Si              1.90843333      0.81427588      2.97301662     -0.42138475      0.02543704      0.06903757      14       0       0       0      31     -2.44526730      1.72114232      0.98670798      3.21170020      0.28891366      1.28919342      0.84038859      5.89899039      2.63206533      9.93372029
 Si              3.62892410      1.73692272      3.92817184      0.35582307      0.02754497     -0.32107722      14       0       0      -1      31     -3.98849744      1.10824695      0.04622641      0.98429352      0.02351792      2.64895389      0.59001892      4.87486848      5.59731182     15.97362436
 Si              1.78473181      3.22207779     -0.21249208     -0.43856250     -0.25903303     -0.16251785      14       0       0       0      31     -2.44246514      0.74119913      0.96755661     -0.70083742      4.13652311     10.43180340     -1.13665032     -1.86771308     -2.45643149      1.08575647
 Si              3.72342418      4.28291439      0.61722646      0.18515504      0.23780689      0.10385701      14       0      -1       0      31     -3.82201279      0.53338370      0.01742511     -0.19691634      4.57718151     11.00366070     -0.51251866     -1.98314477     -4.74716167      0.33479616
 Si              3.51603300      4.20938791      3.05173537     -0.05179552      0.06314033      0.06921438      14       0       0      -1      30     -0.33808328      0.28248117     -0.30731419      1.41458678     -0.00147901     -1.07750859      1.09949178      2.42125584      0.20365181      3.09540939
 Si              5.50346151      5.41754251      3.73753598     -0.02185360      0.02079221     -0.01476652      14       0      -1      -1      29      0.27031016     -0.98449828     -0.83584310      0.87356202      0.20150639     -4.56736332      6.29649281      0.66317265      6.17188407     -7.91232781
 Si              3.67815105     -0.17148841     -0.13257449     -0.30655220      0.24229653      0.05900448      14       0       0       0      32     -2.16732996      9.00522673     -0.53606035      0.43975349     -2.96124972      0.63758466     -0.25973493     -2.88664874      0.13008284      0.96693138
 Si              5.48087719      0.81176300      0.70371693      0.19241239      0.45858605      0.24265428      14      -1       0       0      30     -3.95051734     15.05030947     -2.49000833     -3.49172387     -7.57257922      2.02750428      0.70828481     -6.39116568      0.19825636      3.87025279
 Si              5.75606600      0.90150135      3.02776935     -0.44432763     -0.15766612      0.01144388      14      -1       0       0      30     -0.13612527      3.53967804      1.12159828     -1.10677324     -0.19089733     -0.68528983      0.29032694     -0.15396111     -0.80963964     -0.72051243
 Si              7.15819612      1.97787776      3.73851607      0.67786513      0.16581529     -0.28486994      14      -1       0      -1      32     -0.00100467      1.47371593      1.10664749      0.45161235      1.13965123     -0.76478017     -0.70016991      2.38942012     -0.27052843     -2.06658385
 Si              5.66327215      3.01278734     -0.02445271      0.04891412      0.06574815     -0.01379865      14      -1       0       0      29     -0.56340616      5.47429504     -1.89904952      0.80756371     -2.30272768     -0.32850320     -0.57071001     -0.60420268      0.70766572     -0.31310106
 Si              7.47123915      4.27959860      0.29980453     -0.05148412     -0.03884010     -0.02376710      14      -1      -1       0      31      0.43871774     -1.56948492      4.24382994     -0.10660634      4.96974270     -8.73223020     -0.20615067     -0.28125321     -1.12545052     -0.33352910