 17
 config_type=Sb_int virial="15.78346407      -8.98260808      -2.03545832      -8.98260808      33.48229495      -9.39345185      -2.03545832      -9.39345185      32.22618574" energy=5.7828673251943599 cutoff=5.00000000 nneightol=1.20000000 pbc="T T T" Lattice="7.74350993       0.00000000       0.00000000       3.87815890       6.69158098       0.00000000       3.85516841       2.23973876       6.35620957" Properties=species:S:1:pos:R:3:force:R:3:Z:I:1:map_shift:I:3:n_neighb:I:1:local_energy:R:1:local_virial:R:9
 Si              1.98275554      1.11276674      0.78597677     -0.11104026      0.19488237     -0.12359936      14       0       0       0      35     -0.25832705      2.42726417      0.26321458      1.07816343     -0.87327685      0.27596407     -0.36849800      1.45255359      0.07144751      1.01212635
 Si             -0.08665174      0.10521540      0.03788899      2.32613503     -2.08650127      2.27325487      14       0       0       0      32     -5.75971882      4.25452076     -4.42377594      2.51938392     -5.49738869      2.43483679     -4.38053708      2.76473045     -3.63431643      2.80600178
 Si              1.88741215      1.09119489      3.16416375     -0.16201929     -0.55602804     -0.37782889      14       0       0       0      32     -2.86573837      2.22801838      2.92540695      2.43743404      4.81161383     12.96619600      9.04720626      3.74203207      8.76917558      7.62762316
 Si              3.78986722      2.22540294      4.01800978      1.69335061     -2.57935193     -1.71191646      14       0       0      -1      33     -6.52034502      0.69182699     -2.36726107     -1.14087036     -2.52626081      2.65351654      1.84296392     -1.13376654      1.72672651      1.92182553
 Si              1.97224295      3.39708967     -0.00401409     -0.06741737      0.04227283      0.04293679      14       0      -1       0      36     -0.22849658      3.30604377      1.41520853      1.07165390      1.68997832      1.00802079      0.56591458      0.88856555      0.35824773      0.60637378
 Si              3.93171284      4.42287267      0.84999865     -0.45199095     -0.61863145     -0.17083211      14       0      -1       0      35     -0.13515485      0.28102734      0.00596623      0.15256425     -0.10026478      0.99383078     -0.23228794     -0.03506169     -0.36425992      0.61428889
 Si              3.82753164      4.47393325      3.14835953      1.85538215      0.94877159     -2.21648706      14       0      -1       0      33     -5.60181473      6.74684787      1.09221176     -6.36354749      2.32887523      1.78845546     -2.95569175     -5.91106576     -1.16174236      4.73583279
 Si              5.72264392      5.52487613      3.98457543     -0.55221139     -0.23505067      0.15287851      14       0      -1      -1      36     -0.44528072      3.73145224      1.54596883     -0.29191974      1.60590457      1.11114877     -0.22220885     -2.75529644     -1.33050565      0.59944399
 Si              3.85996242     -0.02609998     -0.11152602     -0.64763216     -0.53991938      0.13489781      14      -1       0       0      33     -3.85762053     12.56193897      8.93102679     -2.42466169      8.27662931      6.49907409     -1.48384080     -5.03985631     -3.50840138      1.45754056
 Si              5.71893483      1.08895863      0.83337352     -1.66508527     -1.34291827      5.03841706      14      -1       0       0      34     -6.47882001     -0.17277951     -0.78917056     -1.10204281     -0.87643596      0.22471999     -0.84029470     -1.11232031     -1.23215282      3.38184958
 Si              5.79561286      1.17712253      3.22569901      0.44030048      0.30104396      0.20916865      14       0       0      -1      36     -0.14084025      1.28166943     -0.16857824     -0.18418109     -0.27761910      1.67577331     -0.22781762     -0.22682123     -0.21698056      1.98215419
 Si              7.85037987      2.24391305      3.93559643      0.20439435      0.09787325      0.02766991      14      -1       0      -1      33     -4.52069895     14.19140751      9.20790379      6.66070268      7.26028541      7.18457672      3.94859537      6.23449736      4.61445522      5.32990253
 Si              5.84251643      3.33684425      0.13054984     -0.35314588      3.05018610      2.74310364      14       0       0       0      32     -5.78678421     -1.05743150     -1.10839146     -1.89700551      0.03759466      7.83741069      4.66882474     -0.76425947      3.63729011      2.88457178
 Si              7.78103085      4.52510570      0.76624930     -0.13753271     -0.32945146     -0.39100485      14      -1      -1       0      35     -0.56514943      0.90046469      0.43691023      0.24195422      2.35807343      3.43103639      1.84520367      1.57049860      1.96372854      2.25737034
 Si              7.72340751      4.43974001      3.12320186     -0.64934916     -0.06380739     -0.64148528      14      -1       0       0      32     -3.32608296     13.11920518      1.52660669     10.74453872     -0.94257574      0.66002145     -0.29713263     10.72440016      1.74111628     10.02684745
 Si              9.65926661      5.55585256      4.04744922     -2.35192755      8.28434660     -4.96660849      14      -1      -1      -1      33     -6.22180368     -1.59228676     -1.90746637     -0.28975218      0.36243060      7.38741262     -1.28144035     -0.97536642     -3.67521930      0.91142557
 Sb             -5.40056418     -5.17366082     -1.32803299      0.62978937     -4.56771684     -0.02256473      51       0       1       0      30     58.49554347    -47.11572544    -25.56838883    -13.24787261    -26.62017152    -24.64969952    -19.02241065    -11.45892193    -17.15206092    -15.92899251
 17
 config_type=Sb_int virial="24.85647471     -13.47108704     -16.30779274     -13.47108704      38.08113150      -6.79173304     -16.30779274      -6.79173304      44.56514456" energy=9.0625276029066200 cutoff=5.00000000 nneightol=1.20000000 pbc="T T T" Lattice="7.83372073       0.00000000       0.00000000       3.86630423       6.74418544       0.00000000       3.85313177       2.25383919       6.37685640" Properties=species:S:1:pos:R:3:force:R:3:Z:I:1:map_shift:I:3:n_neighb:I:1:local_energy:R:1:local_virial:R:9
 Si              2.00613902      1.08584888      0.80794310     -0.00076891     -0.18467389     -0.02596833      14       0       0       0      34     -0.76378613      4.47909720     -0.34208075      3.33397338     -0.74584709      0.99185259     -0.77288154      3.89053316     -0.52436114      3.88673538
 Si             -0.12120332      0.00734846      0.04640976      1.59445399     -2.65557548      3.54608274      14       0       0       0      32     -5.87571979      1.79414163     -5.60644304      4.97160869     -4.84178560      2.01144008     -7.70846961      3.32239106     -6.09401576      9.06382189
 Si              1.99246947      1.06955616      3.09031060     -0.03136612     -0.50190207     -0.29503526      14       0       0       0      32     -2.17296295      3.97520335      4.14622807      3.00314408      4.10431335      7.50470715      4.53093855      3.36134749      5.53703417      4.67957759
 Si              3.88713117      2.28180935      3.95083150      6.33918117    -10.70613726     -5.99345363      14       0       0      -1      32     -5.40225994      0.52980386     -3.07646016     -2.99876285     -4.58686382      5.40532107      2.13237530     -4.68609398      3.48178416      2.69385885
 Si              2.01892718      3.37626295     -0.05579193      0.20960674      0.13454327      0.11743749      14       0      -1       0      35     -0.32173134      5.73339111      2.75577859      2.49357585      2.63715315      3.40485345      1.46257450      1.02489730      0.62756923      2.63994315
 Si              3.88904977      4.50571483      0.77082508     -0.26289528     -0.28578773     -0.33620950      14       0      -1       0      32     -0.43096068      0.96638476     -0.04461346     -1.98443669     -0.25727207      1.08538522     -1.11988788     -1.86801839     -1.13735963      7.80948996
 Si              3.71720205      4.45013332      3.15068904      7.87441095      6.04815365    -14.97847461      14       0       0       0      32     -5.00584983      5.02529503      0.80445021     -7.69669987      1.17735146      4.11930673     -3.96837374     -9.33129817     -4.48510364     12.78377563
 Si              5.73491259      5.62099199      3.87551005      0.39819212      0.29540751     -0.17960580      14       0      -1      -1      34     -1.90841580      9.73156364      4.25288324     -1.09114493      3.41690213      3.02100459     -0.69876595     -0.00066014     -0.25270286      1.27819495
 Si              3.80680139      0.01176418     -0.18663817     -0.27035421     -0.06945256      0.05536706      14       0       0       0      34     -0.73246228      8.20196291      3.71895424     -3.31208123      3.51665899      2.12019222     -1.56998341     -2.80753496     -1.43460547      1.96483818
 Si              5.88424217      1.16368549      0.75735270     -0.71716898     -0.32855465      0.67914791      14      -1       0       0      32     -5.97253243      3.40418614      0.16068304     -6.21709237      1.39825336      1.01391029     -3.98842759     -7.96808471     -1.76500141      7.56732603
 Si              5.81761347      1.03324066      3.11478513      0.74435158      0.09233407     -0.06807444      14      -1       0       0      34     -0.15916197      2.11158445     -1.93961718     -1.47865083     -2.03362138      2.17503717      0.67532192     -1.16037053      0.69734521      1.68839079
 Si              7.82410361      2.27563869      3.96607688      0.02144432      0.05106162      0.22719570      14      -1       0      -1      32     -1.74023237     10.98122260      4.70666475      2.02896915      5.66950048      5.60611976      1.47791307      2.94976633      1.70520340      3.08335257
 Si              5.80812726      3.33068087      0.01787537     -0.28686583      0.99517703      0.94647499      14       0       0       0      31     -5.90748691     -1.07514239     -1.36420406     -2.76499309     -4.69030416      7.25297992      8.06475413     -3.85539747      4.85244223      6.76268727
 Si              7.80736619      4.59676356      0.72359631     -0.19460121     -0.10458059     -0.11276710      14      -1      -1       0      34     -0.28911344      0.87468973      0.29473371      0.33739213      0.83402774      2.61767191      1.95628703      0.92125888      2.65333429      2.64036335
 Si              7.83750015      4.51126863      3.17685798     -0.15900838      0.11923356     -0.08902344      14      -1      -1       0      33     -2.08889945     10.64918500     -1.00673427      4.75742606     -1.45052498      1.66232068     -0.72443710      5.91196561     -0.71849648      3.04715606
 Si              9.58146530      5.67482538      3.95032712     -3.17914894      3.44801838     -1.64600728      14      -1      -1      -1      32     -5.70377096      2.60063418     -8.17556154      1.20315471     -8.32680776      5.54218806     -1.55053563      2.52991381     -3.62905364      0.93276834
 Sb              3.00778838     -5.17804800     -1.59799267    -12.07946301      3.65273515     18.15291349      51      -1       1       0      35     53.53787387    -45.12672849    -12.75574844    -10.89317491     -9.29222085    -17.45315938     -4.99013509     -8.54240802     -6.30574569    -27.95713543
 17
 config_type=Sb_int virial="29.99438123       0.56481815      -0.58321568       0.56481815      14.38836282       5.36453691      -0.58321568       5.36453691      22.42908739" energy=4.4330575975520361 cutoff=5.00000000 nneightol=1.20000000 pbc="T T T" Lattice="7.68836048       0.00000000       0.00000000       3.89361207       6.75416728       0.00000000       3.87730581       2.24900066       6.28467291" Properties=species:S:1:pos:R:3:force:R:3:Z:I:1:map_shift:I:3:n_neighb:I:1:local_energy:R:1:local_virial:R:9
 Si              1.98287641      1.10669565      0.80483072      1.36216021      0.65805028     -0.99610874      14       0       0       0      33     -5.29776228      3.46154405      1.16863316     -2.40002964      2.15902995     -0.91418608     -1.17612313     -1.86066532     -0.22985251      3.09974968
 Si              0.02126424      0.00602044      0.01844356      0.01182931     -0.71673556     -4.34741785      14       0       0       0      33     -6.52088589      0.20351600      0.31882680     -0.65760319      0.41466535     -0.31538154      0.65822276     -0.03923781      0.46236866      3.42288746
 Si              1.91871026      1.13888031      3.12330121      5.62028373      2.22352843      2.24685533      14       0       0       0      32     -6.60042784      3.40308051      2.24386312      0.80209690      1.92058227      1.10482637      0.79001574      0.70191017      0.88984137      0.56619316
 Si              3.85104135      2.22011116      4.07208233      0.01255854      0.18225652      0.49969577      14       0       0      -1      35     -0.13979150      2.02368084      0.06598169     -0.02734652      0.06975312      1.66360754      0.15124379     -0.05150498      0.23879433      1.65352215
 Si              1.98436108      3.39237366      0.02721188     -0.27314096     -0.11950620      0.21209274      14       0      -1       0      35     -0.15157138     -0.05640120     -0.09213609      0.07629593     -0.42067425     -0.59898770      0.50954963      0.27819405      0.27409969     -0.04848662
 Si              3.91476019      4.49332828      0.78178687      0.02482040     -0.90490169     -0.59376680      14       0      -1       0      34     -4.19372489     -0.24258410      0.50536247      0.25007346     -0.14404314     14.98787797      5.24208382     -0.10718808      7.20395742      3.28236823
 Si              3.86037121      4.53984862      3.10181612      0.04195836     -0.94273536      0.32459765      14       0      -1       0      34     -5.82082424      1.51839974      0.49457876     -0.35752484      0.91319362     16.17567536     -3.65746486     -0.51176435     -4.78183797      2.66215441
 Si              5.71613100      5.56700608      3.91351449      0.40120470     -0.71947579      0.51193842      14       0      -1      -1      33     -4.42798724      4.06291833     -6.82358809      4.90598065     -4.72483350      7.52480451     -4.97419605      4.74461228     -6.73020830      3.89255934
 Si              3.78137146      0.07289837     -0.09485591      0.16590919     -0.55671546      0.03068669      14       0       0       0      36     -0.08549998      1.06720519      0.16155494     -0.26042748      0.10606355      0.14524334     -0.73329751     -0.23935817     -0.79566490     -1.07747203
 Si              5.75759252      1.09912843      0.76287799     -1.26356467      0.54928763     -0.93058922      14      -1       0       0      33     -5.24790559      4.45133344     -2.25090325      3.69644804     -3.71195970      1.02200556     -2.23232122      2.88291879     -0.78934073      3.15896422
 Si              5.76777455      1.12671137      3.07271100     -4.98898542      1.83017381      1.76406034      14      -1       0       0      33     -6.54566364      3.18121329     -2.00600696     -0.58011827     -1.17577304      0.61972867      0.64259879     -1.19435745      1.21960086      0.05376309
 Si              7.70625858      2.33743012      3.98535379      0.07681891      1.91909249      1.38249994      14      -1       0      -1      34     -5.39084263      0.85950106     -0.63231207      0.15974495     -0.67959900      2.10881599      5.30172214      0.11840459      5.13980937      4.22112412
 Si              5.80311870      3.24701009      0.11897718      0.13145582     -0.35161518      0.20073388      14      -1       0       0      34     -0.20321251      1.02762741     -2.08881944      1.05943385     -0.53621022      1.26266327     -0.57219824      0.64387708     -1.69893226      1.62413359
 Si              7.77222345      4.62835264      0.82751929     -0.03682612     -0.17648730      0.03193850      14      -1      -1       0      35     -0.20559421      0.29513694      0.08964023      0.05725283      0.06097975      0.40873181      0.11968078      0.05846066      0.14379360      0.11996897
 Si              7.68717707      4.59202905      3.16545225      0.11740692     -0.19712599     -0.24473336      14       0      -1      -1      35     -0.13299213      0.45447550     -0.19692415      0.11292448     -0.16921439     -1.25714597     -0.49422805     -0.01672968     -0.35092183      0.30650397
 Si              9.59147452      5.62146255      4.02533080     -0.68702942     -0.56890443      0.62833162      14      -1      -1      -1      33     -3.95355212      7.01374634      7.64755176     -6.22663410      5.73828695      8.63148034     -5.76074522     -5.28319262     -6.68288493      6.13955869
 Sb              3.82155308     -6.39237725      2.29567598     -0.71685951     -2.10818622     -0.72081491      51      -1       1       0      30     59.35129567     -2.73001211      1.95951527     -1.19378272      0.74457082    -38.18139662     11.54999373     -0.70759483     11.85191502    -10.64840502
 17
 config_type=Sb_int virial="18.23691874      12.01254136      10.21585456      12.01254136      34.92548255      -3.95623040      10.21585456      -3.95623040      36.13942426" energy=6.0074066428437902 cutoff=5.00000000 nneightol=1.20000000 pbc="T T T" Lattice="7.74064261       0.00000000       0.00000000       3.89813511       6.68715326       0.00000000       3.92567232       2.24259248       6.33552934" Properties=species:S:1:pos:R:3:force:R:3:Z:I:1:map_shift:I:3:n_neighb:I:1:local_energy:R:1:local_virial:R:9
 Si              2.00313736      1.10143464      0.83075872      3.86947869      4.43744825     -3.08151040      14       0       0       0      33     -6.15197926      2.00774831      5.24097508     -3.50630672      5.95823033      2.37326913     -4.05021044     -3.94413741     -4.02512842      4.08956190
 Si             -0.02212601     -0.00110522     -0.05701130     -3.86566980      1.99916443     -6.47765129      14       0       0       0      33     -5.92021426      1.28106158     -0.58528249      5.67555947     -0.61631055      1.28637547     -3.65103366      5.67736999     -3.59443155      6.29202534
 Si              1.96610447      1.14028787      3.25440645      1.45883318      3.05822424      2.98568498      14       0       0      -1      34     -6.03707661     -2.12428238      2.80165769      3.96433778      2.98413292      6.71277209      5.26397727      3.54549452      4.40411546      5.77994510
 Si              3.83358444      2.19529025      4.09447227      0.36112734     -0.61632950      0.11639148      14       0       0      -1      34     -0.13546317      0.39579732      0.49873380      0.55097924      0.44631689      1.50323561     -0.61757698      0.22868877     -0.54276059      0.95549820
 Si              1.99283573      3.37131321     -0.04155015     -0.53746029      0.20236897      0.17395622      14       0      -1       0      36     -0.13616332      0.69122697      0.42836186      0.73193926      0.41707675      0.80621056      0.04628352      0.67256374      0.11392611      1.36396703
 Si              3.96481768      4.42979705      0.79627164     -2.05728517     -6.00849421     -3.42721912      14       0      -1       0      33     -5.95397567     -3.21845955      2.62235887      2.22690135      2.10758541      6.35429852      3.02313833      1.39031095      1.95614004      2.11942772
 Si              3.90903900      4.41592925      3.03821105     -2.37765957     -3.65855761      2.18965853      14       0       0       0      33     -5.87317133      1.29794934      4.34379890     -2.78482523      4.83154878      0.71076330     -3.35311769     -1.85999271     -0.88837586      3.02154195
 Si              5.87977159      5.60847372      3.91216367      2.37667089     -0.95674468      3.03659863      14       0      -1      -1      33     -6.29583364      2.17498402     -1.28619607      6.54254552     -1.17634212      0.78682075     -2.47334754      7.07687023     -2.94190132      3.74483087
 Si              3.86864557      0.02619419     -0.13121741      0.07050670     -0.00699793     -0.12547635      14      -1       0       0      35     -1.30015540      8.05638021      0.73424247     -5.00379225      0.36841994      1.76019997     -0.10325379     -4.71691226     -0.26869040      4.58989326
 Si              5.79351766      1.10098709      0.80693270     -0.27947374      0.21508503     -0.23213564      14      -1       0       0      35     -2.06616083     11.94529882     -5.59531323      1.77840955     -5.65076548      4.44441707     -1.10957755      1.84302159     -1.12524986      1.81280475
 Si              5.90345762      1.11582600      3.19776828      0.15320192     -0.00287607     -0.00536973      14      -1       0      -1      37     -1.61728398      8.92310645     -4.31556927     -3.40815418     -3.83605719      5.01916131      1.89932020     -2.77824897      1.74961542      3.78255666
 Si              7.79366559      2.29738917      3.81458426      0.00987652      0.49959684      0.34460881      14      -1       0      -1      35     -1.68684251      2.75563101     -3.29119673     -1.85857716     -3.29622347      9.34847997      5.66599248     -1.97019234      6.13260981      4.90083261
 Si              5.79507081      3.38659653      0.04253161     -0.17738568     -0.05182230     -0.16269405      14       0      -1       0      36     -2.21488565      3.60248277     -3.52700713     -2.01642272     -3.42377908      7.68869022      4.35198967     -2.07645099      4.72867404      3.70968886
 Si              7.82870428      4.60398390      0.77047607      0.03681129      0.11612299      0.06457695      14      -1      -1       0      35     -1.23702208      8.02844065     -3.33860276     -2.39572888     -3.78411096      3.55533245      1.47387085     -2.58030673      1.39443236      2.89359178
 Si              7.74180372      4.57337199      3.15601887      0.26908799     -0.20992268      0.34798257      14       0      -1       0      35     -1.59085895      9.50205660     -4.73654852      3.16576500     -4.90590310      3.48702559     -2.00311446      2.95564206     -1.81984098      2.83960204
 Si              9.62557307      5.59401121      3.99445603     -0.09243518     -0.08526098      0.02423409      14      -1      -1      -1      35     -1.24624424      9.26053884      0.70529056     -5.46722044     -0.11565494      1.24463469      0.07330437     -4.96469824     -0.48363394      4.82540813
 Sb             -6.86733092      3.92208684     -4.45821074      0.78177490      1.06899521      4.22836431      51       1      -1       1      38     55.47073754    -46.34304223     21.31283832     12.02044496     21.70437721    -22.15620413     -8.39287500     11.71683238     -8.74573074    -20.58175194
 17
 config_type=Sb_int virial="23.18087113       5.61002824       3.03080684       5.61002824      27.47011472      -1.06928948       3.03080684      -1.06928948      34.69959921" energy=4.6896530538145171 cutoff=5.00000000 nneightol=1.20000000 pbc="T T T" Lattice="7.74731265       0.00000000       0.00000000       3.86030338       6.75448684       0.00000000       3.90569626       2.22805363       6.39420031" Properties=species:S:1:pos:R:3:force:R:3:Z:I:1:map_shift:I:3:n_neighb:I:1:local_energy:R:1:local_virial:R:9
 Si              2.02902958      1.02017283      0.90942534     -1.20313358      0.51825786     -0.35123104      14       0       0       0      32     -5.50478355      6.93493786     -4.59773310      2.03602461     -5.02174576      0.65062314     -1.14618773      3.90903202     -1.85722303      0.76315162
 Si              0.00618547      0.03143189      0.00935578     -0.17686348     -0.21352830      0.26487645      14       0       0       0      32     -0.41127529      5.28938241     -0.32041533     -2.58678580      0.71278193      0.36963781     -0.06082093     -2.81465706      0.19390428      2.29875803
 Si              2.03096244      1.06393340      3.21612392     -0.95540712      0.48021841      0.59748334      14       0       0      -1      32     -5.98003730     11.29608893     -3.47687183     -7.80158204     -4.18888823      3.96645250      3.46517588     -5.66237148      1.95797826      6.22143972
 Si              3.88235728      2.19964180      4.00534333     -0.33355535      0.87314841      0.67316667      14       0       0      -1      31     -4.61183829      1.10397172     -1.80709490     -1.20576509     -2.92032865      8.79297933      9.37145088     -2.10892954      8.74416473      8.40101365
 Si              1.95475509      3.39875979     -0.00282185      0.09857983      0.29828119      0.18030681      14       0      -1       0      33     -0.19440133      0.53259471     -0.06316300     -0.29514704     -0.61305477      1.12369389      0.21734138     -0.21978550      0.27794121      0.62465606
 Si              3.93601539      4.37043824      0.79149814     -0.10440951     -0.03337480      0.11160178      14       0      -1       0      35     -0.14819019      0.41801815     -0.15989239      0.00303756     -0.21977535      0.72583593     -0.02177757     -0.00280728     -0.08172274      0.40485307
 Si              3.88887965      4.49427014      3.24612496     -0.29840628      0.08252782     -0.14549276      14       0       0      -1      34     -0.13849332     -0.95987850      0.70605108     -0.44021622      0.70056930     -0.43763840      0.22015139     -0.63210276      0.16850097     -0.00568113
 Si              5.73495785      5.51369664      3.99396641     -0.99435804     -0.38873984      0.63721429      14       0      -1      -1      31     -3.73774900     11.32574683      3.72235318     -8.86694579      4.33726226      3.12726754     -4.24186369     -8.72147449     -3.61928507      8.63692043
 Si              3.80378390      0.03629792     -0.13456313     -1.43724803      0.18703729     -6.99235270      14       0       0       0      32     -6.58456585      0.36258920      0.28701927      1.53216553      0.26169256      0.90536792     -0.37049333      1.38678404     -0.17023575      2.37587358
 Si              5.74241700      1.12668966      0.88138768      3.30393844      2.32396926     -1.79516747      14      -1       0       0      31     -5.47045447      7.52081976      3.70821981     -3.86574703      4.31767799      2.37472932     -2.66340208     -1.14892154     -0.20553210      2.91020390
 Si              5.89041314      1.10501761      3.12040655      2.78970078      1.81383710      1.17134481      14      -1       0       0      31     -6.34850254      1.29936348      0.89952073      2.16607653      1.40425244      0.85794195      1.40705224     -0.86764149     -0.91725738      1.59344564
 Si              7.73038012      2.15098301      3.99490230     -0.00105841     -0.47297864      0.24474814      14      -1       0      -1      35     -0.15551806      1.45187489      0.26358514      0.01793997      0.22660857      2.46072022     -0.33835350      0.08269282     -0.48196219      1.09845648
 Si              5.82537465      3.31392942      0.12622712     -0.44788010     -0.00630452      0.54186329      14      -1       0       0      34     -0.22528917      1.13528162      1.28588687     -0.17978665      0.65918146      1.79316423     -0.93694153     -0.35077746     -1.06580603      1.71383144
 Si              7.79733648      4.63685821      0.81255849     -0.26723653     -3.38632472     -1.98164047      14      -1      -1       0      31     -5.72607737     -1.61362466     -0.15946468      0.81313699     -0.09082204      7.48493757      3.31604060      0.66477268      1.55090406      1.54926541
 Si              7.85974182      4.60567718      3.10529800     -0.00944179     -2.31222482      0.96659189      14      -1      -1       0      30     -6.38919054      0.74248441      0.35754282     -0.46979456      0.66042300      1.35338674     -1.22263936     -0.45036950      1.20890314      1.13869454
 Si              9.68404385      5.59178963      4.02069801      0.86586881     -0.79139024      1.29335891      14      -1      -1      -1      32     -5.33923350      2.69458613     -1.98212052      7.25363296     -2.18505522      2.86256267     -5.31813015      5.83258281     -4.15361174      8.52046742
 Sb              0.29493015     -6.80140034      2.05719623     -0.82908963      1.02758856      4.58332806      51       0       1       0      30     61.65525279    -26.35336579      6.94660510     14.92056290      7.56924876    -10.94154764     -2.74589200     14.13478058     -2.61895008    -13.54575065
 17
 config_type=Sb_int virial="21.71862627      13.25923556       9.06432252      13.25923556      35.22829424     -10.64430343       9.06432252     -10.64430343      44.45417503" energy=7.9687930390274175 cutoff=5.00000000 nneightol=1.20000000 pbc="T T T" Lattice="7.69007435       0.00000000       0.00000000       3.91576391       6.64744675       0.00000000       3.91890912       2.22964583       6.34168583" Properties=species:S:1:pos:R:3:force:R:3:Z:I:1:map_shift:I:3:n_neighb:I:1:local_energy:R:1:local_virial:R:9
 Si              1.94949729      1.14873724      0.82854044      1.70442792     -1.16324169      2.75685631      14       0       0       0      33     -6.12115837      3.02317085     -2.24467481      7.03299711     -1.68325817      1.71841054     -3.76752315      5.99030330     -4.23621925      4.27175053
 Si              0.10704157     -0.03834020      0.02180664     -1.33182396     -2.64837442      2.01717318      14       0       0       0      32     -6.01288665      2.68581108      6.72709355     -4.03044526      5.47312009      3.29146943     -4.61405380     -3.12085949     -4.57370303      4.84813044