 2
 config_type=Sb_Si_dimer energy=282.46579313721310 virial="1151.87441056       0.00000000       0.00000000       0.00000000       0.00000000       0.00000000       0.00000000       0.00000000       0.00000000" cutoff=5.00000000 nneightol=1.20000000 pbc="T T T" Lattice="30.00000000       0.00000000       0.00000000       0.00000000      30.00000000       0.00000000       0.00000000       0.00000000      30.00000000" Properties=species:S:1:pos:R:3:force:R:3:Z:I:1:map_shift:I:3:n_neighb:I:1:local_energy:R:1:local_virial:R:9
 Si              0.00000000      0.00000000      0.00000000  -1411.97509028      0.00000000      0.00000000      14       0       0       0       1    120.71226319    588.54000411      0.00000000      0.00000000      0.00000000      0.00000000      0.00000000      0.00000000      0.00000000      0.00000000
 Sb              0.81578947      0.00000000      0.00000000   1411.97509028      0.00000000      0.00000000      51       0       0       0       1    161.75352995    563.33440645      0.00000000      0.00000000      0.00000000      0.00000000      0.00000000      0.00000000      0.00000000      0.00000000
 2
 config_type=Sb_Si_dimer energy=217.95088523312140 virial="917.77761632       0.00000000       0.00000000       0.00000000       0.00000000       0.00000000       0.00000000       0.00000000       0.00000000" cutoff=5.00000000 nneightol=1.20000000 pbc="T T T" Lattice="30.00000000       0.00000000       0.00000000       0.00000000      30.00000000       0.00000000       0.00000000       0.00000000      30.00000000" Properties=species:S:1:pos:R:3:force:R:3:Z:I:1:map_shift:I:3:n_neighb:I:1:local_energy:R:1:local_virial:R:9
 Si              0.00000000      0.00000000      0.00000000  -1056.83483411      0.00000000      0.00000000      14       0       0       0       1     89.26156301    472.09270369      0.00000000      0.00000000      0.00000000      0.00000000      0.00000000      0.00000000      0.00000000      0.00000000
 Sb              0.86842105      0.00000000      0.00000000   1056.83483411      0.00000000      0.00000000      51       0       0       0       1    128.68932222    445.68491262      0.00000000      0.00000000      0.00000000      0.00000000      0.00000000      0.00000000      0.00000000      0.00000000
 2
 config_type=Sb_Si_dimer energy=169.65906125431007 virial="729.22999247       0.00000000       0.00000000       0.00000000       0.00000000       0.00000000       0.00000000       0.00000000       0.00000000" cutoff=5.00000000 nneightol=1.20000000 pbc="T T T" Lattice="30.00000000       0.00000000       0.00000000       0.00000000      30.00000000       0.00000000       0.00000000       0.00000000      30.00000000" Properties=species:S:1:pos:R:3:force:R:3:Z:I:1:map_shift:I:3:n_neighb:I:1:local_energy:R:1:local_virial:R:9
 Si              0.00000000      0.00000000      0.00000000   -791.73542176      0.00000000      0.00000000      14       0       0       0       1     65.90900796    378.37531618      0.00000000      0.00000000      0.00000000      0.00000000      0.00000000      0.00000000      0.00000000      0.00000000
 Sb              0.92105263      0.00000000      0.00000000    791.73542176      0.00000000      0.00000000      51       0       0       0       1    103.75005329    350.85467629      0.00000000      0.00000000      0.00000000      0.00000000      0.00000000      0.00000000      0.00000000      0.00000000
 2
 config_type=Sb_Si_dimer energy=133.34723848404224 virial="582.99064686       0.00000000       0.00000000       0.00000000       0.00000000       0.00000000       0.00000000       0.00000000       0.00000000" cutoff=5.00000000 nneightol=1.20000000 pbc="T T T" Lattice="30.00000000       0.00000000       0.00000000       0.00000000      30.00000000       0.00000000       0.00000000       0.00000000      30.00000000" Properties=species:S:1:pos:R:3:force:R:3:Z:I:1:map_shift:I:3:n_neighb:I:1:local_energy:R:1:local_virial:R:9
 Si              0.00000000      0.00000000      0.00000000   -598.74715115      0.00000000      0.00000000      14       0       0       0       1     48.53201447    305.76571333      0.00000000      0.00000000      0.00000000      0.00000000      0.00000000      0.00000000      0.00000000      0.00000000
 Sb              0.97368421      0.00000000      0.00000000    598.74715115      0.00000000      0.00000000      51       0       0       0       1     84.81522401    277.22493353      0.00000000      0.00000000      0.00000000      0.00000000      0.00000000      0.00000000      0.00000000      0.00000000
 2
 config_type=Sb_Si_dimer energy=105.68649999985702 virial="471.67051690       0.00000000       0.00000000       0.00000000       0.00000000       0.00000000       0.00000000       0.00000000       0.00000000" cutoff=5.00000000 nneightol=1.20000000 pbc="T T T" Lattice="30.00000000       0.00000000       0.00000000       0.00000000      30.00000000       0.00000000       0.00000000       0.00000000      30.00000000" Properties=species:S:1:pos:R:3:force:R:3:Z:I:1:map_shift:I:3:n_neighb:I:1:local_energy:R:1:local_virial:R:9
 Si              0.00000000      0.00000000      0.00000000   -459.57640085      0.00000000      0.00000000      14       0       0       0       1     35.46516834    250.56807933      0.00000000      0.00000000      0.00000000      0.00000000      0.00000000      0.00000000      0.00000000      0.00000000
 Sb              1.02631579      0.00000000      0.00000000    459.57640085      0.00000000      0.00000000      51       0       0       0       1     70.22133166    221.10243758      0.00000000      0.00000000      0.00000000      0.00000000      0.00000000      0.00000000      0.00000000      0.00000000
 2
 config_type=Sb_Si_dimer energy=84.373013380185796 virial="383.88737948       0.00000000       0.00000000       0.00000000       0.00000000       0.00000000       0.00000000       0.00000000       0.00000000" cutoff=5.00000000 nneightol=1.20000000 pbc="T T T" Lattice="30.00000000       0.00000000       0.00000000       0.00000000      30.00000000       0.00000000       0.00000000       0.00000000      30.00000000" Properties=species:S:1:pos:R:3:force:R:3:Z:I:1:map_shift:I:3:n_neighb:I:1:local_energy:R:1:local_virial:R:9
 Si              0.00000000      0.00000000      0.00000000   -355.79805851      0.00000000      0.00000000      14       0       0       0       1     25.55568663    207.09041280      0.00000000      0.00000000      0.00000000      0.00000000      0.00000000      0.00000000      0.00000000      0.00000000
 Sb              1.07894737      0.00000000      0.00000000    355.79805851      0.00000000      0.00000000      51       0       0       0       1     58.81732675    176.79696669      0.00000000      0.00000000      0.00000000      0.00000000      0.00000000      0.00000000      0.00000000      0.00000000
 2
 config_type=Sb_Si_dimer energy=67.690222919120870 virial="318.91242292       0.00000000       0.00000000       0.00000000       0.00000000       0.00000000       0.00000000       0.00000000       0.00000000" cutoff=5.00000000 nneightol=1.20000000 pbc="T T T" Lattice="30.00000000       0.00000000       0.00000000       0.00000000      30.00000000       0.00000000       0.00000000       0.00000000      30.00000000" Properties=species:S:1:pos:R:3:force:R:3:Z:I:1:map_shift:I:3:n_neighb:I:1:local_energy:R:1:local_virial:R:9
 Si              0.00000000      0.00000000      0.00000000   -281.82958239      0.00000000      0.00000000      14       0       0       0       1     17.94451544    174.96780427      0.00000000      0.00000000      0.00000000      0.00000000      0.00000000      0.00000000      0.00000000      0.00000000
 Sb              1.13157895      0.00000000      0.00000000    281.82958239      0.00000000      0.00000000      51       0       0       0       1     49.74570748    143.94461865      0.00000000      0.00000000      0.00000000      0.00000000      0.00000000      0.00000000      0.00000000      0.00000000
 2
 config_type=Sb_Si_dimer energy=54.411965874922700 virial="266.98578524       0.00000000       0.00000000       0.00000000       0.00000000       0.00000000       0.00000000       0.00000000       0.00000000" cutoff=5.00000000 nneightol=1.20000000 pbc="T T T" Lattice="30.00000000       0.00000000       0.00000000       0.00000000      30.00000000       0.00000000       0.00000000       0.00000000      30.00000000" Properties=species:S:1:pos:R:3:force:R:3:Z:I:1:map_shift:I:3:n_neighb:I:1:local_energy:R:1:local_virial:R:9
 Si              0.00000000      0.00000000      0.00000000   -225.45466239      0.00000000      0.00000000      14       0       0       0       1     12.01788883    149.32019160      0.00000000      0.00000000      0.00000000      0.00000000      0.00000000      0.00000000      0.00000000      0.00000000
 Sb              1.18421053      0.00000000      0.00000000    225.45466239      0.00000000      0.00000000      51       0       0       0       1     42.39407704    117.66559365      0.00000000      0.00000000      0.00000000      0.00000000      0.00000000      0.00000000      0.00000000      0.00000000
 2
 config_type=Sb_Si_dimer energy=43.695493841649281 virial="226.96668106       0.00000000       0.00000000       0.00000000       0.00000000       0.00000000       0.00000000       0.00000000       0.00000000" cutoff=5.00000000 nneightol=1.20000000 pbc="T T T" Lattice="30.00000000       0.00000000       0.00000000       0.00000000      30.00000000       0.00000000       0.00000000       0.00000000      30.00000000" Properties=species:S:1:pos:R:3:force:R:3:Z:I:1:map_shift:I:3:n_neighb:I:1:local_energy:R:1:local_virial:R:9
 Si              0.00000000      0.00000000      0.00000000   -183.50497548      0.00000000      0.00000000      14       0       0       0       1      7.35383937    129.57740517      0.00000000      0.00000000      0.00000000      0.00000000      0.00000000      0.00000000      0.00000000      0.00000000
 Sb              1.23684211      0.00000000      0.00000000    183.50497548      0.00000000      0.00000000      51       0       0       0       1     36.34165447     97.38927590      0.00000000      0.00000000      0.00000000      0.00000000      0.00000000      0.00000000      0.00000000      0.00000000
 2
 config_type=Sb_Si_dimer energy=34.940005756857936 virial="194.27298183       0.00000000       0.00000000       0.00000000       0.00000000       0.00000000       0.00000000       0.00000000       0.00000000" cutoff=5.00000000 nneightol=1.20000000 pbc="T T T" Lattice="30.00000000       0.00000000       0.00000000       0.00000000      30.00000000       0.00000000       0.00000000       0.00000000      30.00000000" Properties=species:S:1:pos:R:3:force:R:3:Z:I:1:map_shift:I:3:n_neighb:I:1:local_energy:R:1:local_virial:R:9
 Si              0.00000000      0.00000000      0.00000000   -150.66068028      0.00000000      0.00000000      14       0       0       0       1      3.65146364    113.44893591      0.00000000      0.00000000      0.00000000      0.00000000      0.00000000      0.00000000      0.00000000      0.00000000
 Sb              1.28947368      0.00000000      0.00000000    150.66068028      0.00000000      0.00000000      51       0       0       0       1     31.28854212     80.82404592      0.00000000      0.00000000      0.00000000      0.00000000      0.00000000      0.00000000      0.00000000      0.00000000
 2
 config_type=Sb_Si_dimer energy=27.701386575582891 virial="168.11716168       0.00000000       0.00000000       0.00000000       0.00000000       0.00000000       0.00000000       0.00000000       0.00000000" cutoff=5.00000000 nneightol=1.20000000 pbc="T T T" Lattice="30.00000000       0.00000000       0.00000000       0.00000000      30.00000000       0.00000000       0.00000000       0.00000000      30.00000000" Properties=species:S:1:pos:R:3:force:R:3:Z:I:1:map_shift:I:3:n_neighb:I:1:local_energy:R:1:local_virial:R:9
 Si              0.00000000      0.00000000      0.00000000   -125.26376782      0.00000000      0.00000000      14       0       0       0       1      0.68829039    100.54188318      0.00000000      0.00000000      0.00000000      0.00000000      0.00000000      0.00000000      0.00000000      0.00000000
 Sb              1.34210526      0.00000000      0.00000000    125.26376782      0.00000000      0.00000000      51       0       0       0       1     27.01309619     67.57527849      0.00000000      0.00000000      0.00000000      0.00000000      0.00000000      0.00000000      0.00000000      0.00000000
 2
 config_type=Sb_Si_dimer energy=21.671644941930250 virial="145.95089670       0.00000000       0.00000000       0.00000000       0.00000000       0.00000000       0.00000000       0.00000000       0.00000000" cutoff=5.00000000 nneightol=1.20000000 pbc="T T T" Lattice="30.00000000       0.00000000       0.00000000       0.00000000      30.00000000       0.00000000       0.00000000       0.00000000      30.00000000" Properties=species:S:1:pos:R:3:force:R:3:Z:I:1:map_shift:I:3:n_neighb:I:1:local_energy:R:1:local_virial:R:9
 Si              0.00000000      0.00000000      0.00000000   -104.64403930      0.00000000      0.00000000      14       0       0       0       1     -1.69000379     89.58322660      0.00000000      0.00000000      0.00000000      0.00000000      0.00000000      0.00000000      0.00000000      0.00000000
 Sb              1.39473684      0.00000000      0.00000000    104.64403930      0.00000000      0.00000000      51       0       0       0       1     23.36164873     56.36767010      0.00000000      0.00000000      0.00000000      0.00000000      0.00000000      0.00000000      0.00000000      0.00000000
 2
 config_type=Sb_Si_dimer energy=16.617492782961182 virial="127.16952841       0.00000000       0.00000000       0.00000000       0.00000000       0.00000000       0.00000000       0.00000000       0.00000000" cutoff=5.00000000 nneightol=1.20000000 pbc="T T T" Lattice="30.00000000       0.00000000       0.00000000       0.00000000      30.00000000       0.00000000       0.00000000       0.00000000      30.00000000" Properties=species:S:1:pos:R:3:force:R:3:Z:I:1:map_shift:I:3:n_neighb:I:1:local_energy:R:1:local_virial:R:9
 Si              0.00000000      0.00000000      0.00000000    -87.86258333      0.00000000      0.00000000      14       0       0       0       1     -3.60030708     80.27202860      0.00000000      0.00000000      0.00000000      0.00000000      0.00000000      0.00000000      0.00000000      0.00000000
 Sb              1.44736842      0.00000000      0.00000000     87.86258333      0.00000000      0.00000000      51       0       0       0       1     20.21779986     46.89749982      0.00000000      0.00000000      0.00000000      0.00000000      0.00000000      0.00000000      0.00000000      0.00000000
 2
 config_type=Sb_Si_dimer energy=12.377099933444191 virial="110.55598870       0.00000000       0.00000000       0.00000000       0.00000000       0.00000000       0.00000000       0.00000000       0.00000000" cutoff=5.00000000 nneightol=1.20000000 pbc="T T T" Lattice="30.00000000       0.00000000       0.00000000       0.00000000      30.00000000       0.00000000       0.00000000       0.00000000      30.00000000" Properties=species:S:1:pos:R:3:force:R:3:Z:I:1:map_shift:I:3:n_neighb:I:1:local_energy:R:1:local_virial:R:9
 Si              0.00000000      0.00000000      0.00000000    -73.70399247      0.00000000      0.00000000      14       0       0       0       1     -5.12369886     72.00136662      0.00000000      0.00000000      0.00000000      0.00000000      0.00000000      0.00000000      0.00000000      0.00000000
 Sb              1.50000000      0.00000000      0.00000000     73.70399247      0.00000000      0.00000000      51       0       0       0       1     17.50079880     38.55462208      0.00000000      0.00000000      0.00000000      0.00000000      0.00000000      0.00000000      0.00000000      0.00000000
 2
 config_type=Sb_Si_dimer energy=2.1092572182801206 virial="63.10343111       0.00000000       0.00000000       0.00000000       0.00000000       0.00000000       0.00000000       0.00000000       0.00000000" cutoff=5.00000000 nneightol=1.20000000 pbc="T T T" Lattice="30.00000000       0.00000000       0.00000000       0.00000000      30.00000000       0.00000000       0.00000000       0.00000000      30.00000000" Properties=species:S:1:pos:R:3:force:R:3:Z:I:1:map_shift:I:3:n_neighb:I:1:local_energy:R:1:local_virial:R:9
 Si              0.00000000      0.00000000      0.00000000    -37.34692867      0.00000000      0.00000000      14       0       0       0       1     -8.27334614     48.07481181      0.00000000      0.00000000      0.00000000      0.00000000      0.00000000      0.00000000      0.00000000      0.00000000
 Sb              1.68965517      0.00000000      0.00000000     37.34692867      0.00000000      0.00000000      51       0       0       0       1     10.38260336     15.02861930      0.00000000      0.00000000      0.00000000      0.00000000      0.00000000      0.00000000      0.00000000      0.00000000
 2
 config_type=Sb_Si_dimer energy=-1.7201313710359456 virial="35.78215286       0.00000000       0.00000000       0.00000000       0.00000000       0.00000000       0.00000000       0.00000000       0.00000000" cutoff=5.00000000 nneightol=1.20000000 pbc="T T T" Lattice="30.00000000       0.00000000       0.00000000       0.00000000      30.00000000       0.00000000       0.00000000       0.00000000      30.00000000" Properties=species:S:1:pos:R:3:force:R:3:Z:I:1:map_shift:I:3:n_neighb:I:1:local_energy:R:1:local_virial:R:9
 Si              0.00000000      0.00000000      0.00000000    -19.57891379      0.00000000      0.00000000      14       0       0       0       1     -8.90664675     33.98569854      0.00000000      0.00000000      0.00000000      0.00000000      0.00000000      0.00000000      0.00000000      0.00000000
 Sb              1.82758621      0.00000000      0.00000000     19.57891379      0.00000000      0.00000000      51       0       0       0       1      7.18651538      1.79645431      0.00000000      0.00000000      0.00000000      0.00000000      0.00000000      0.00000000      0.00000000      0.00000000
 2
 config_type=Sb_Si_dimer energy=-3.6521527076831881 virial="18.39877456       0.00000000       0.00000000       0.00000000       0.00000000       0.00000000       0.00000000       0.00000000       0.00000000" cutoff=5.00000000 nneightol=1.20000000 pbc="T T T" Lattice="30.00000000       0.00000000       0.00000000       0.00000000      30.00000000       0.00000000       0.00000000       0.00000000      30.00000000" Properties=species:S:1:pos:R:3:force:R:3:Z:I:1:map_shift:I:3:n_neighb:I:1:local_energy:R:1:local_virial:R:9
 Si              0.00000000      0.00000000      0.00000000     -9.36078005      0.00000000      0.00000000      14       0       0       0       1     -8.72287907     24.67371862      0.00000000      0.00000000      0.00000000      0.00000000      0.00000000      0.00000000      0.00000000      0.00000000
 Sb              1.96551724      0.00000000      0.00000000      9.36078005      0.00000000      0.00000000      51       0       0       0       1      5.07072636     -6.27494405      0.00000000      0.00000000      0.00000000      0.00000000      0.00000000      0.00000000      0.00000000      0.00000000
 2
 config_type=Sb_Si_dimer energy=-4.4529580309370287 virial="5.95167220       0.00000000       0.00000000       0.00000000       0.00000000       0.00000000       0.00000000       0.00000000       0.00000000" cutoff=5.00000000 nneightol=1.20000000 pbc="T T T" Lattice="30.00000000       0.00000000       0.00000000       0.00000000      30.00000000       0.00000000       0.00000000       0.00000000      30.00000000" Properties=species:S:1:pos:R:3:force:R:3:Z:I:1:map_shift:I:3:n_neighb:I:1:local_energy:R:1:local_virial:R:9
 Si              0.00000000      0.00000000      0.00000000     -2.82948350      0.00000000      0.00000000      14       0       0       0       1     -8.09887840     17.67937201      0.00000000      0.00000000      0.00000000      0.00000000      0.00000000      0.00000000      0.00000000      0.00000000
 Sb              2.10344828      0.00000000      0.00000000      2.82948350      0.00000000      0.00000000      51       0       0       0       1      3.64592037    -11.72769981      0.00000000      0.00000000      0.00000000      0.00000000      0.00000000      0.00000000      0.00000000      0.00000000
 2
 config_type=Sb_Si_dimer energy=-4.5827202395401478 virial="-1.13641064       0.00000000       0.00000000       0.00000000       0.00000000       0.00000000       0.00000000       0.00000000       0.00000000" cutoff=5.00000000 nneightol=1.20000000 pbc="T T T" Lattice="30.00000000       0.00000000       0.00000000       0.00000000      30.00000000       0.00000000       0.00000000       0.00000000      30.00000000" Properties=species:S:1:pos:R:3:force:R:3:Z:I:1:map_shift:I:3:n_neighb:I:1:local_energy:R:1:local_virial:R:9
 Si              0.00000000      0.00000000      0.00000000      0.50701398      0.00000000      0.00000000      14       0       0       0       1     -7.25711662     13.25306293      0.00000000      0.00000000      0.00000000      0.00000000      0.00000000      0.00000000      0.00000000      0.00000000
 Sb              2.24137931      0.00000000      0.00000000     -0.50701398      0.00000000      0.00000000      51       0       0       0       1      2.67439638    -14.38947357      0.00000000      0.00000000      0.00000000      0.00000000      0.00000000      0.00000000      0.00000000      0.00000000
 2
 config_type=Sb_Si_dimer energy=-4.4034129093712195 virial="-3.65423739       0.00000000       0.00000000       0.00000000       0.00000000       0.00000000       0.00000000       0.00000000       0.00000000" cutoff=5.00000000 nneightol=1.20000000 pbc="T T T" Lattice="30.00000000       0.00000000       0.00000000       0.00000000      30.00000000       0.00000000       0.00000000       0.00000000      30.00000000" Properties=species:S:1:pos:R:3:force:R:3:Z:I:1:map_shift:I:3:n_neighb:I:1:local_energy:R:1:local_virial:R:9
 Si              0.00000000      0.00000000      0.00000000      1.53583891      0.00000000      0.00000000      14       0       0       0       1     -6.37010376     11.03566577      0.00000000      0.00000000      0.00000000      0.00000000      0.00000000      0.00000000      0.00000000      0.00000000
 Sb              2.37931034      0.00000000      0.00000000     -1.53583891      0.00000000      0.00000000      51       0       0       0       1      1.96669085    -14.68990316      0.00000000      0.00000000      0.00000000      0.00000000      0.00000000      0.00000000      0.00000000      0.00000000
 2
 config_type=Sb_Si_dimer energy=-4.1428636148036482 virial="-9.48818481       0.00000000       0.00000000       0.00000000       0.00000000       0.00000000       0.00000000       0.00000000       0.00000000" cutoff=5.00000000 nneightol=1.20000000 pbc="T T T" Lattice="30.00000000       0.00000000       0.00000000       0.00000000      30.00000000       0.00000000       0.00000000       0.00000000      30.00000000" Properties=species:S:1:pos:R:3:force:R:3:Z:I:1:map_shift:I:3:n_neighb:I:1:local_energy:R:1:local_virial:R:9
 Si              0.00000000      0.00000000      0.00000000      3.76927890      0.00000000      0.00000000      14       0       0       0       1     -5.54284970      7.11459867      0.00000000      0.00000000      0.00000000      0.00000000      0.00000000      0.00000000      0.00000000      0.00000000
 Sb              2.51724138      0.00000000      0.00000000     -3.76927890      0.00000000      0.00000000      51       0       0       0       1      1.39998608    -16.60278348      0.00000000      0.00000000      0.00000000      0.00000000      0.00000000      0.00000000      0.00000000      0.00000000
 2
 config_type=Sb_Si_dimer energy=-3.5318741098409725 virial="-10.41284305       0.00000000       0.00000000       0.00000000       0.00000000       0.00000000       0.00000000       0.00000000       0.00000000" cutoff=5.00000000 nneightol=1.20000000 pbc="T T T" Lattice="30.00000000       0.00000000       0.00000000       0.00000000      30.00000000       0.00000000       0.00000000       0.00000000      30.00000000" Properties=species:S:1:pos:R:3:force:R:3:Z:I:1:map_shift:I:3:n_neighb:I:1:local_energy:R:1:local_virial:R:9
 Si              0.00000000      0.00000000      0.00000000      3.92172012      0.00000000      0.00000000      14       0       0       0       1     -4.63177512      5.62817635      0.00000000      0.00000000      0.00000000      0.00000000      0.00000000      0.00000000      0.00000000      0.00000000
 Sb              2.65517241      0.00000000      0.00000000     -3.92172012      0.00000000      0.00000000      51       0       0       0       1      1.09990101    -16.04101941      0.00000000      0.00000000      0.00000000      0.00000000      0.00000000      0.00000000      0.00000000      0.00000000
 2
 config_type=Sb_Si_dimer energy=-3.0629321094201294 virial="-8.39124049       0.00000000       0.00000000       0.00000000       0.00000000       0.00000000       0.00000000       0.00000000       0.00000000" cutoff=5.00000000 nneightol=1.20000000 pbc="T T T" Lattice="30.00000000       0.00000000       0.00000000       0.00000000      30.00000000       0.00000000       0.00000000       0.00000000      30.00000000" Properties=species:S:1:pos:R:3:force:R:3:Z:I:1:map_shift:I:3:n_neighb:I:1:local_energy:R:1:local_virial:R:9
 Si              0.00000000      0.00000000      0.00000000      3.00427128      0.00000000      0.00000000      14       0       0       0       1     -3.87433580      5.61556340      0.00000000      0.00000000      0.00000000      0.00000000      0.00000000      0.00000000      0.00000000      0.00000000
 Sb              2.79310345      0.00000000      0.00000000     -3.00427128      0.00000000      0.00000000      51       0       0       0       1      0.81140369    -14.00680389      0.00000000      0.00000000      0.00000000      0.00000000      0.00000000      0.00000000      0.00000000      0.00000000
 2
 config_type=Sb_Si_dimer energy=-2.6765546057846827 virial="-7.90986383       0.00000000       0.00000000       0.00000000       0.00000000       0.00000000       0.00000000       0.00000000       0.00000000" cutoff=5.00000000 nneightol=1.20000000 pbc="T T T" Lattice="30.00000000       0.00000000       0.00000000       0.00000000      30.00000000       0.00000000       0.00000000       0.00000000      30.00000000" Properties=species:S:1:pos:R:3:force:R:3:Z:I:1:map_shift:I:3:n_neighb:I:1:local_energy:R:1:local_virial:R:9
 Si              0.00000000      0.00000000      0.00000000      2.69865943      0.00000000      0.00000000      14       0       0       0       1     -3.23238754      4.84963261      0.00000000      0.00000000      0.00000000      0.00000000      0.00000000      0.00000000      0.00000000      0.00000000
 Sb              2.93103448      0.00000000      0.00000000     -2.69865943      0.00000000      0.00000000      51       0       0       0       1      0.55583293    -12.75949644      0.00000000      0.00000000      0.00000000      0.00000000      0.00000000      0.00000000      0.00000000      0.00000000
 2
 config_type=Sb_Si_dimer energy=-2.3011560926641370 virial="-8.51169472       0.00000000       0.00000000       0.00000000       0.00000000       0.00000000       0.00000000       0.00000000       0.00000000" cutoff=5.00000000 nneightol=1.20000000 pbc="T T T" Lattice="10.00000000       0.00000000       0.00000000       0.00000000      10.00000000       0.00000000       0.00000000       0.00000000      10.00000000" Properties=species:S:1:pos:R:3:force:R:3:Z:I:1:map_shift:I:3:n_neighb:I:1:local_energy:R:1:local_virial:R:9
 Si              0.00000000      0.00000000      0.00000000      2.77347356      0.00000000      0.00000000      14       0       0       0       1     -2.66224670      3.57101424      0.00000000      0.00000000      0.00000000      0.00000000      0.00000000      0.00000000      0.00000000      0.00000000
 Sb              3.06896552      0.00000000      0.00000000     -2.77347356      0.00000000      0.00000000      51       0       0       0       1      0.36109061    -12.08270895      0.00000000      0.00000000      0.00000000      0.00000000      0.00000000      0.00000000      0.00000000      0.00000000
 2
 config_type=Sb_Si_dimer energy=-1.9115576172729063 virial="-9.13338771       0.00000000       0.00000000       0.00000000       0.00000000       0.00000000       0.00000000       0.00000000       0.00000000" cutoff=5.00000000 nneightol=1.20000000 pbc="T T T" Lattice="10.00000000       0.00000000       0.00000000       0.00000000      10.00000000       0.00000000       0.00000000       0.00000000      10.00000000" Properties=species:S:1:pos:R:3:force:R:3:Z:I:1:map_shift:I:3:n_neighb:I:1:local_energy:R:1:local_virial:R:9
 Si              0.00000000      0.00000000      0.00000000      2.84804563      0.00000000      0.00000000      14       0       0       0       1     -2.14401605      2.32019025      0.00000000      0.00000000      0.00000000      0.00000000      0.00000000      0.00000000      0.00000000      0.00000000
 Sb              3.20689655      0.00000000      0.00000000     -2.84804563      0.00000000      0.00000000      51       0       0       0       1      0.23245843    -11.45357796      0.00000000      0.00000000      0.00000000      0.00000000      0.00000000      0.00000000      0.00000000      0.00000000
 2