 17
 config_type=Sb_double virial="38.93521497     -12.46776156     -15.78181710     -12.46776156      44.34344443      -3.48314099     -15.78181710      -3.48314099      52.56691370" energy=3.4744554929166185 cutoff=5.00000000 nneightol=1.20000000 pbc="T T T" Lattice="7.81742706       0.00000000       0.00000000       3.85535924       6.66638994       0.00000000       3.88599570       2.24234268       6.28434974" Properties=species:S:1:pos:R:3:force:R:3:Z:I:1:map_shift:I:3:n_neighb:I:1:local_energy:R:1:local_virial:R:9
 Si             -0.08659670      0.10526624      0.03754270     -2.91271374     -1.53192383     -0.89944095      14       0       0       0      33     -7.67048969     31.52527782     10.87667377     -2.13583765     12.38624103      9.81549845     -0.20722295      1.42997067      1.15614420      8.50217246
 Si              1.90283385      1.09246415      3.12824290      0.53331959     -0.12486368      3.13979488      14       0       0       0      35     -6.23195906      6.97223124     -2.18770326     -2.11208883     -2.21649759      6.53056071      0.98353356     -2.70973469      1.05346447     24.42279763
 Si              3.81536497      2.22397065      3.97257490      0.26861228      0.30295261     -0.03422000      14       0       0      -1      35     -3.06524131     22.65484491      8.21189550      5.78047148      7.97033917      5.72272829      2.79186718      6.85229772      3.70120604      7.48083346
 Si              1.96098112      3.38435299     -0.00374663     -0.37439369      3.94705058      0.40376682      14       0      -1       0      34    -11.85908953      3.13308882     -1.71341681     -0.92924758     -5.07997158     26.06456945      0.97897679     -2.10855804     -0.62844272      9.98593230
 Si              3.93097658      4.40751133      0.84107093     -0.20987338     -0.11199793      0.31996420      14       0      -1       0      35     -1.21280681      1.99266284      2.86156888     -0.69630188      4.36515451      7.36246460      0.54559253      0.38338880      0.09375462      0.42892738
 Si              3.83118647      4.46264675      3.11230968     -0.36125436      0.18655039     -0.05442291      14       0      -1       0      33     -2.58299599     15.47386589     -0.75446524      5.82811109     -1.89009899      3.04605272     -0.94165431      6.90840008     -0.50321214      4.64036603
 Si              5.73650637      5.51079747      3.93966440     -3.25273115      4.95285292     -2.46375385      14       0      -1      -1      35     -7.32087680     -0.43825289     -5.43592404      1.54359069     -4.38594143      6.94715544     -8.16302712      0.96645842     -7.46584036      7.66335910
 Si              3.89667744     -0.02625147     -0.11072413      4.47079042     -3.64273368      1.61463312      14      -1       0       0      32    -11.49570158     16.77314766     -9.39490873      2.34072136     -9.43392247      7.37549095     -0.34498961      0.36037666      1.73855903     12.71788511
 Si              5.76575760      1.08619393      0.82454338      0.29800304      0.31501922     -0.03731948      14      -1       0       0      37     -1.57567520      1.42137600      0.64313874      2.00805018     -1.95172485     -0.18037963     -1.30136083      1.30220517      0.10177943      2.05656724
 Si              5.84820081      1.17848898      3.18972714     -0.04159297     -0.36073759     -0.09520367      14       0       0      -1      35     -4.02402881      5.18482950      5.05855488      2.95413567      6.92243808     11.18135265      5.78656392      4.81573010      7.90642547      3.83770965
 Si              7.91291720      2.24229964      3.89125432      7.34931555     -8.50831815     -4.88361160      14      -1       0      -1      33     -6.85082937      0.13431434     -7.56745454     -6.87895553     -8.20623569      6.02623848      3.76180093     -7.14211255      3.48830175      6.69964696
 Si              5.86891690      3.32448149      0.12984303      0.12190577      0.02994075     -0.04242955      14       0       0       0      36     -0.31846470      3.15761316      1.04578436      1.14048460      0.40573661      2.44051934      0.47345834     -0.03124696      0.07192213      1.45382564
 Si              7.81675908      4.50938732      0.75768396     -0.63632605     -0.41088256      0.13399968      14      -1      -1       0      35     -0.99070733      2.00153566     -3.14526016     -1.37356698     -3.03710854      4.77317482     -0.50159599     -1.40050130      0.40034662      2.80309599
 Si              7.76410780      4.42828817      3.08764059      5.87977672      3.87108064     -7.57519961      14      -1       0       0      32     -5.59370281      6.57204691      4.00619721     -7.45771746      3.46646486      7.53385369     -4.95538770     -8.43209964     -6.45209433     10.62831598
 Si              9.70998909      5.54181493      4.00202821      0.04295895     -0.14511564     -0.08994350      14      -1      -1      -1      35     -1.66881821      8.65122194      4.13006346     -0.44664672      4.05289580      3.56153498     -0.49688021     -1.60532160     -1.37771415      0.88377526
 Sb              1.99370068      1.11013337      0.77667803     -2.30697188     -0.85408315      5.11411210      51       0       0       0      33     26.26407183    -37.38642539     -0.11588700     -3.15057574      0.72199902    -43.77201218      0.51365394     -3.67925658     -1.65432632    -39.50529572
 Sb              6.64097687      3.62411453      4.69516133     -8.86882512      2.08520910      5.44927433      51       0       0      -1      34     49.67177087    -48.88816344    -18.98661857    -12.19644382    -16.55752947    -20.08535834     -2.40646944    -11.69181337     -5.11341473    -12.13300074
 17
 config_type=Sb_double virial="43.80521540     -10.60857832     -10.57199317     -10.60857832      41.32220710      -3.52489320     -10.57199317      -3.52489320      35.41228811" energy=.72429760998105053 cutoff=5.00000000 nneightol=1.20000000 pbc="T T T" Lattice="7.79246196       0.00000000       0.00000000       3.89628835       6.69490561       0.00000000       3.86020059       2.23226553       6.28813214" Properties=species:S:1:pos:R:3:force:R:3:Z:I:1:map_shift:I:3:n_neighb:I:1:local_energy:R:1:local_virial:R:9
 Si             -0.12114329      0.00731941      0.04598219     -0.06938545     -1.67054372      1.08312015      14       0       0       0      33    -10.62500630     18.45603475      2.07859356     10.09313086      3.62655109     10.06605004     -2.81830934      7.10290653     -2.07801079     13.53631446
 Si              1.99601849      1.05870873      3.04595965      0.12306616     -1.35505620      5.05778751      14       0       0       0      33    -10.52248791      4.09438017      1.41783928      1.73585792      4.11602722     15.28685649      4.84901196      2.96378978      7.40555461     26.41537032
 Si              3.89035702      2.26214631      3.89473372      6.10110198     -4.53788115     -2.04657434      14       0       0      -1      33     -6.71079124      5.73242188      0.06624541      2.71032520      0.01989002      1.05959099      2.05561968      1.15476532      2.97423560      6.10169753
 Si              2.03384192      3.35144613     -0.05546170     -0.06350527      2.95641246     -0.84796519      14       0      -1       0      35     -6.35384430      3.30544578      0.76691367      0.41267079      0.71903838     20.00674736     -6.59787746      0.43829971     -5.88123103      5.66430603
 Si              3.90322212      4.47235116      0.75980215      0.03349776     -0.14109853     -0.46726505      14       0      -1       0      36     -0.76809399      2.76307753      3.77211299     -1.86416143      3.37480127      5.49675993     -1.16300538     -1.24466885     -0.96927307      3.17471190
 Si              3.73596756      4.41467589      3.10617883      4.65838596      2.63647036     -4.04456340      14       0       0       0      33     -5.21166335     10.65444451      4.04064449     -5.43794717      2.70596313      5.39699379     -2.10252626     -5.49100576     -3.18739621      5.47100415
 Si              5.75310678      5.57678397      3.82005907      0.10693834      0.08528834      0.08124984      14       0      -1      -1      34     -1.32283791      4.86042348      2.94192507     -0.96275769      2.87621968      4.87620074     -4.00972038     -2.09918111     -5.26124076      5.02261330
 Si              3.78612092      0.01176542     -0.18564810      2.77444612     -2.35071318     -1.17107908      14       0       0       0      33     -9.90736259     26.21397407     -1.69124435    -14.69881427     -2.17188546     11.86030308      0.16942840    -14.60067198     -0.13787867     13.94996049
 Si              5.86320309      1.15500015      0.74645026      0.00180724      0.10746633      1.16674497      14      -1       0       0      32     -6.50729125      8.09794394      0.79178069     -0.42284246      1.51940920      0.53611683     -0.26467801     -3.82564836     -1.68193793     10.46262121
 Si              5.80036911      1.02256444      3.07037118      0.16845393     -0.55637124     -0.04595815      14      -1       0       0      35     -0.28963523      3.98074413      0.05255962     -0.20728641     -0.06951404      0.59739711      1.01389285     -0.13217786      0.89861573      2.82009408
 Si              7.80638264      2.25602687      3.91132834     -0.59299004     -0.27544076     -0.52248915      14      -1       0      -1      34     -6.66745517     12.12416543      3.59931467     -4.21660588      4.23032725      4.00252863      1.47508297     -0.73982045      2.33882165      4.49915113
 Si              5.80211697      3.30623398      0.01700268     -0.32942603      1.12564182      1.26933997      14       0       0       0      33     -5.38511802      0.24575639     -0.96548043     -1.20495330     -3.28318833      6.51376385      7.59319088     -2.76350099      4.83446757      8.05025764
 Si              7.80129811      4.56283592      0.71302082     -0.04741014     -0.13513633      0.05590124      14      -1      -1       0      35     -1.12628568      2.51967973     -4.11339566      0.03000468     -3.65043399      6.68223454     -0.03818729     -0.39055756      0.85462361      0.34730958
 Si              7.83552386      4.47566905      3.13295101     -1.34484837      0.73030034     -0.83016399      14      -1      -1       0      33     -5.26853093      8.59939469     -1.67203418      3.56930295     -4.36943219      2.01725810     -1.65961696      6.46925574     -1.32234474      1.93057531
 Si              9.57924196      5.63050835      3.89424647     -1.80191512      5.97694970     -1.52546762      14      -1      -1      -1      32     -6.31270677      0.98345601     -1.00776713      0.07331469     -1.13267849      4.34570738     -0.86946524      0.27114245     -1.53767951      0.72617239
 Sb              2.00520594      1.07724654      0.79646209     -2.20859401      0.10263830     -1.97479135      51       0       0       0      34     24.33453802    -41.09337926     -3.28715785     -3.74625589     -3.37929896    -46.95447511      1.60989610     -2.00455983      1.35336871    -41.19094239
 Sb             -1.66408636     -3.17305199      4.45188318     -7.50962305     -2.69892655      4.76217365      51       0       1      -1      30     59.36887023    -27.73274783    -17.39942816      3.56502423    -15.74037410    -10.46782664     -2.76762972      4.31964006     -2.12758798    -31.56892901
 17
 config_type=Sb_double virial="37.04357615      -6.31414990      -4.61358943      -6.31414990      54.83952316      -4.29421933      -4.61358943      -4.29421933      29.25209465" energy=-.60148840086648647 cutoff=5.00000000 nneightol=1.20000000 pbc="T T T" Lattice="7.77778142       0.00000000       0.00000000       3.87931131       6.74520547       0.00000000       3.85890487       2.22612946       6.39212160" Properties=species:S:1:pos:R:3:force:R:3:Z:I:1:map_shift:I:3:n_neighb:I:1:local_energy:R:1:local_virial:R:9
 Si              0.02104224      0.00592384      0.01896136     -2.74978387     -0.11867886     -0.02661538      14       0       0       0      31    -10.25625960     15.65249883      7.43097177      5.09185845      6.41456701     13.06033149     12.05663932      4.69662617      8.64860346     16.42814142
 Si              1.90954363      1.12743608      3.17701201     -1.45455470      0.64986220      2.07059612      14       0       0       0      32    -10.70445710     10.17312606     -1.00751705      4.78594123     -2.97043549      4.11622772     -1.73060831      4.01030072     -0.07936849     22.42508558
 Si              3.84829648      2.20455511      4.14001901     -0.45304340      9.48644206     -1.19693352      14       0       0      -1      32     -6.45111016      1.20803890     -1.18576223      2.96930968      0.51832869      7.09561629     -1.10548698      1.83075848     -0.94709440      4.83034399
 Si              1.97765425      3.38793111      0.02681196     -0.38856838      2.32951826     -0.40143090      14       0      -1       0      31    -10.16370534     10.14236074      6.12642471     -7.48058924      5.34430395     24.34632085    -11.64796729     -6.61891240    -11.43767414     14.46725311
 Si              3.91521942      4.48490687      0.79513608      0.14995142     -0.12304031      1.25591682      14       0      -1       0      32     -6.19403416      3.03607288      2.98438427     -0.05781551      3.02986513      6.12176634     -0.67504725     -0.36755923     -2.04430326     14.86190997
 Si              3.84349169      4.52389491      3.15571980      0.02877497      0.20627937     -0.42003032      14       0      -1       0      33     -0.28975784      2.17478287      0.36175636      0.03601820      0.36577515      3.21192368     -0.42043202      0.00672156     -0.47832569      2.69162092
 Si              5.70637371      5.54712453      3.98066788     -1.02586709     -0.70995891     -0.18385718      14       0      -1      -1      32     -6.81141478      7.50782866      5.99685722     -0.71666244      4.49145083      7.93227503     -3.82578327      1.04929645     -2.19592658      4.64604032
 Si              3.82647333      0.07311004     -0.09605493      3.51757424     -1.88930449     -1.46337773      14       0       0       0      33     -6.32547681     17.38660086     -7.58502644     -6.31384764     -7.69464604      7.77465817      3.25154845     -5.68883586      2.82863243      7.27784188
 Si              5.80901875      1.09522063      0.77608129      0.05508558     -0.06501374     -0.01820273      14      -1       0       0      34     -0.96982836      7.29472511     -0.19255966      1.12807530     -0.28182642     -0.07964384      0.94839451      0.84840982      0.93379356     -2.12069108
 Si              5.80347982      1.11528482      3.12649809      2.01103940      1.01056585     -1.57230951      14      -1       0       0      31     -5.66399005      5.40184283      1.97321612     -5.28683973      1.63363454      1.43067803     -1.22988196     -3.18077023     -0.41387213      0.60485422
 Si              7.74924374      2.32217153      4.05165651      0.22218401      0.37892746      0.33267031      14      -1       0      -1      34     -0.78554762      2.51386827     -1.05023238     -3.43218310     -1.07122117      1.08691625      1.96454521     -2.22015441      1.42624247      4.52618855
 Si              5.84104005      3.24237792      0.12003405      0.23272292     -0.83863925      0.86965660      14      -1       0       0      32     -3.93403204      6.93058412     -5.74159522      8.13135695     -4.27223328      7.57533442     -7.19699495      5.73741134     -6.95189305     13.15373125
 Si              7.81725762      4.61992421      0.84032664      0.05180213     -0.09503417      0.19132893      14      -1      -1       0      34     -1.02359518      1.80707875     -3.73182386      0.18301720     -2.82220730      4.68435336     -1.90534156     -0.40901142     -1.16520321     -2.67854129
 Si              7.71556965      4.57617832      3.21862538     -0.01622227     -2.06407038     -1.04003496      14       0      -1      -1      31     -5.24845890      0.73800938     -0.25635856     -0.67734409      1.68334145      9.67804150      4.61556324      0.45473262      4.72297621      0.78981766
 Si              9.62590134      5.60142670      4.09324675      3.87827616     -3.07496287     -0.61074103      14      -1      -1      -1      32     -6.42905677      1.87141939     -1.57607728     -1.18981202     -1.96066710      1.82038822      0.99622403     -1.36784349      1.02177784      1.23394222
 Sb              1.99047636      1.10267939      0.81873469     -1.15102815      0.54927264     -0.38168963      51       0       0       0      34     23.71121848    -40.22308369     -1.19915131      0.61198980     -0.99025144    -37.95178236     -2.09597356      1.98360755     -2.29618175    -39.25545525
 Sb             -7.67318817     -2.08256329     -1.85469730     -2.90834298     -5.63216487      2.59505412      51       1       0       0      30     56.93801780    -16.57217780     -7.66165636     -2.39606250     -7.73192842     -7.06388198      3.70638304     -5.37836710      4.13359739    -34.62998883
 17
 config_type=Sb_double virial="45.22476043       0.75961344      -3.02666762       0.75961344      41.30759351      -0.11313899      -3.02666762      -0.11313899      27.15636909" energy=-.95691011796368741 cutoff=5.00000000 nneightol=1.20000000 pbc="T T T" Lattice="7.80790015       0.00000000       0.00000000       3.90818538       6.73440800       0.00000000       3.86754292       2.25089138       6.28934891" Properties=species:S:1:pos:R:3:force:R:3:Z:I:1:map_shift:I:3:n_neighb:I:1:local_energy:R:1:local_virial:R:9
 Si             -0.02253804     -0.00113706     -0.05723384     -2.12821456     -1.37847891      0.25426142      14       0       0       0      31    -10.61657314     19.13278436      9.16444185     -2.81088834      8.98754939      8.77440831     -1.70996237      0.20477183     -0.61022359     17.11848731
 Si              1.93709754      1.14449700      3.23132205      0.25437680      0.21094769      2.77343293      14       0       0      -1      36     -5.95615798      5.47025469     -0.71362330     -0.44206848     -0.71582422      5.88265470      0.24723441     -1.22563890      0.95194304     23.21436682
 Si              3.80605993      2.20631256      4.06527372     -7.00845937     -4.09074474      0.97191382      14       0       0      -1      32     -7.11058317      8.45306065      5.52580917      4.44449861      5.32278233      2.43143713      2.58470900      3.97453465      2.27962406      3.92451173
 Si              1.99846791      3.39515631     -0.04137827      0.40335544      2.94973028     -0.57537907      14       0      -1       0      34    -10.05464787      4.28834820      1.91041496      1.87277291      2.83480688     27.74279655      3.98818772      2.93711021      2.53014141     17.89167592
 Si              3.97261557      4.46025058      0.79053428      0.10557556     -0.12345682      0.14663796      14       0      -1       0      35     -1.29579321      3.81093160      2.55493118      3.61907590      2.81902074      7.25626078     -2.53543946      1.73719891     -1.59788860      4.76246441
 Si              3.88452563      4.44371482      3.01504376     -3.22743347      1.69922752     -2.58489634      14       0       0       0      32     -5.87823775      4.48613419     -2.37954292      5.19125177     -2.42506433      3.81368044     -4.66400563      4.48188936     -4.23186246      4.11399065
 Si              5.85772518      5.64312267      3.88330178      0.66568255      4.34676486     -0.21401819      14       0      -1      -1      34     -7.28059604      0.79207602      1.72014412     -0.63648457      2.11611452     11.74787276     -5.76373538     -0.65867876     -5.31690379      6.62286915
 Si              3.90316407      0.02633124     -0.13070208      2.63194787     -1.55911013     -0.84687618      14      -1       0       0      32    -10.33251731     22.27728971     -9.57125572      1.84603344    -10.33919621      8.54095666     -0.60512487      3.01437492     -1.25869912     14.41597972
 Si              5.82930317      1.10779325      0.80125804     -0.05982542      0.38376242      0.30681537      14      -1       0       0      36     -1.27595711      7.78864254      0.13998424     -0.29562143     -0.47091353      2.24841536      3.83378522     -0.66155933      2.25404697      3.71710129
 Si              5.90809067      1.11986216      3.17465110      1.02668490     -3.64517523     -1.75498146      14      -1       0      -1      33     -5.62242439      2.54534271     -2.35554637     -0.99235853     -1.01258916      6.60958294      7.48249725     -0.48938454      7.53648950      5.12192469
 Si              7.80132711      2.30855075      3.78608798      3.75413384     -1.74474144     -0.71889668      14      -1       0      -1      33     -7.27840660     11.02998576     -3.31897730     -5.13425537     -5.36307611      2.53878305      2.51372315     -5.57618259      2.65437839      6.64582668
 Si              5.83338971      3.40991695      0.04207738     -0.06704329      0.03701639      0.19659366      14       0      -1       0      36     -0.75493535      1.74377019      0.13928313     -0.29871972      0.07932694      1.72540043      0.22020213     -1.27973383     -0.22321044      8.57688641
 Si              7.87053640      4.63504070      0.76497159     -0.11707241     -0.25930042      0.13519205      14      -1      -1       0      34     -0.93537603      2.48316214     -3.88749124     -0.70111349     -2.78572324      5.79651660     -0.71224117     -0.71227075      0.50263390      0.66833814
 Si              7.75176461      4.60137809      3.13316556      1.27107539      1.09180727     -0.70616675      14       0      -1       0      31     -5.70913671      7.21026766      2.64969897     -3.14818835      3.43835903      4.72902728     -2.22150459     -4.78499251     -2.78951738      0.77259102
 Si              9.63642659      5.62867676      3.96526640     -0.19107927      0.00268467      0.64311302      14      -1      -1      -1      34     -0.13471476      1.05851898      0.18908108     -0.10420446      0.05581268      0.24481974      0.06209700     -0.27328213     -0.05421175      0.51660093
 Sb              2.00557589      1.10808043      0.82478292     -0.85312390     -0.24596377      0.38413846      51       0       0       0      33     23.33046892    -42.84002944     -1.68026202     -1.18147666     -1.69147134    -45.09991203      0.03731125      0.04955314     -0.61129703    -51.81193914
 Sb              5.69898311     -5.64890012     -2.23691011      3.53941935      2.32503035      1.58911597      51      -1       1       0      32     55.94867837    -14.50577953      0.67252360     -4.25492085     -0.09030092    -13.67510719     -2.87087265     -3.76437730     -2.12858210    -39.11530663
 17
 config_type=Sb_double virial="58.53008673      -7.38010105      -7.12056981      -7.38010105      19.76996420      10.97416800      -7.12056981      10.97416800      58.54294005" energy=4.0481173944499744 cutoff=5.00000000 nneightol=1.20000000 pbc="T T T" Lattice="7.75783199       0.00000000       0.00000000       3.88316291       6.66705260       0.00000000       3.87531181       2.22276167       6.32656045" Properties=species:S:1:pos:R:3:force:R:3:Z:I:1:map_shift:I:3:n_neighb:I:1:local_energy:R:1:local_virial:R:9
 Si              0.00598606      0.03153929      0.00902982      8.75606395     -3.34197988      7.92777346      14       0       0       0      34    -10.62991916     23.36632055      1.67597774     12.72361485      4.23483792      7.08846747      1.83601646     11.68373622     -0.13823103     15.56466281
 Si              2.01580929      1.06117573      3.18231251     -0.22532271     -2.47243300      1.53725980      14       0       0      -1      32    -11.30530886      4.14046665      1.85577286     -0.43098426      4.18527532      8.45008435      8.40355888      1.90280504      9.25333307     24.75106235
 Si              3.86719115      2.18561025      3.96257661     12.68236198     -1.81660227    -10.04956488      14       0       0      -1      33     -5.58020793     10.56627862     -3.14516714     -0.69064288     -0.70650981     -0.84934345      2.99743769     -2.05661249      5.79273356      8.21776004
 Si              1.96647015      3.35460604     -0.00257010     -0.05612808      0.79113196     -0.15044888      14       0      -1       0      36     -6.53250910      4.36925202      1.54001948      0.07254648      1.33992410     25.08183338     -9.25175562      0.11522106     -8.56084158      8.42819788
 Si              3.94784407      4.31534107      0.78309470      0.31343131      0.07869852     -0.11523981      14       0      -1       0      35     -1.91731118      5.02715408      2.39034638      1.68553409      1.46025616     13.32302846     -2.89978034      1.48395274     -1.78122733      2.43453352
 Si              3.88500524      4.44790765      3.21219214      0.24860358      0.58409884     -0.62098480      14       0       0      -1      33     -3.01408928      2.68916597      5.52272203     -4.02570929      3.46884839     11.57975680     -6.75146360     -2.32471130     -7.05218837      5.85813613
 Si              5.73147448      5.45587594      3.95169278     -0.09186937     -0.20038250     -0.09207356      14       0      -1      -1      36     -1.23245453      0.11833702      0.63164094      0.18714220      0.72980874      7.31972372     -3.00546878      0.07105248     -1.81192547      6.04711151
 Si              3.80952379      0.03593204     -0.13380834      2.76581550     -2.36647862     -1.09454740      14       0       0       0      33    -11.61627671     28.28152623     -3.85965248    -10.35623377     -2.24501279      5.96073458      2.56712585    -12.49792891      1.95675795     11.09495464
 Si              5.74800422      1.11533298      0.87307609     -1.60852285      2.59403432      4.61488731      14      -1       0       0      34     -6.61795548      6.94572890     -0.18248819     -1.77791137     -2.53714875     -0.39764424      6.92533380     -5.44244169      5.52984502      5.10470688
 Si              5.88042572      1.10258713      3.08654712      0.50701480     -0.52227372      0.08822734      14      -1       0       0      35     -0.32749904      6.75841042     -1.18751790     -0.89882775     -1.35181216      0.92050027      0.94859325     -0.98870981      0.92917642      1.62267384
 Si              7.72116061      2.13654072      3.95316418     -1.57043822      0.33576005     -0.73693251      14      -1       0      -1      33     -6.30985332     13.80777472     -2.34286943      2.60010140     -2.46235024     -0.92855992      1.53818942      5.49425114      1.85176493      8.88420244
 Si              5.84162719      3.27087922      0.12556182     -0.25150318      0.45919362     -0.09850104      14      -1       0       0      33     -2.75260179      1.53941134     -1.07522809     -0.60438496     -1.92597516     14.80055780      3.04887501     -1.08954451      4.37094648      2.98462681
 Si              7.81488625      4.58059407      0.80449615     -0.26977136      0.04463152      0.14154330      14      -1      -1       0      35     -1.60761215      5.27384422     -0.53125993     -2.81259998      0.30916500      7.42241559     -2.50225248     -2.42001962     -1.61063614      2.06865923
 Si              7.86152885      4.55883821      3.07182506      0.04969323      0.13430865      0.16585158      14      -1      -1       0      36     -1.07216870      5.39318199     -4.52838509      3.23652557     -5.30926467      6.53503188     -3.94370749      3.12388608     -3.16660493      4.36137678
 Si              9.68553598      5.53400963      3.97794434     -0.15250669     -0.03650902     -0.00866060      14      -1      -1      -1      36     -2.13232602      2.32715566      0.04338196      0.31349959     -0.97827184     15.66612132     -4.54140146      0.76945882     -5.18633687      4.65715073
 Sb              2.02916574      1.00917850      0.90067267     -1.84965709      2.05738813     -2.19637951      51       0       0       0      36     24.11587164    -37.17344053     -3.46446632     -2.27478818     -3.96497210    -44.54887279      2.60349180     -0.89785061      1.81196581    -38.12413339
 Sb             -1.57425802     -4.17115982      5.10544925    -19.24726477      3.67741339      0.68779020      51       0       1      -1      36     52.58033899    -24.90048114     -0.72292788     -4.06745158     -1.62689914    -57.65387102     13.00137561     -4.04711443      8.78563648    -15.41274217
 17
 config_type=Sb_double virial="45.91965060      -4.45054530      -5.99500138      -4.45054530      63.46177909      -4.34520702      -5.99500138      -4.34520702      28.39804081" energy=3.1168299761076383 cutoff=5.00000000 nneightol=1.20000000 pbc="T T T" Lattice="7.79701321       0.00000000       0.00000000       3.85640210       6.74417412       0.00000000       3.90939061       2.22514784       6.31979906" Properties=species:S:1:pos:R:3:force:R:3:Z:I:1:map_shift:I:3:n_neighb:I:1:local_energy:R:1:local_virial:R:9
 Si              0.10690050     -0.03850890      0.02170117     -2.49062195     -1.65858452     -1.25888428      14       0       0       0      34     -6.10541966     14.92584189      8.68587617      5.12035701      7.65843042      8.02485644      2.98112455      4.21361723      3.77555241      4.34835566
 Si              1.98953862      1.02224257      3.19849892      3.49934493    -15.81903014      3.85201041      14       0       0      -1      33    -12.07798286      4.60282611     -4.90094305     -0.13526123     -2.83999306     21.42863769      2.74867367      0.34730206     -2.82574759     17.34182898