 65
 config_type=Sb_disordered virial="8.91175993       0.34000030       2.65332944       0.34000030      12.90071231      -1.96512554       2.65332944      -1.96512554       9.59689658" energy=-4.2861473025165537 cutoff=5.00000000 nneightol=1.20000000 pbc="T T T" Lattice="10.89328750       0.00000000       0.00000000       0.00000000      10.94676554       0.00000000       0.00000000       0.00000000      10.88484157" Properties=species:S:1:pos:R:3:force:R:3:Z:I:1:map_shift:I:3:n_neighb:I:1:local_energy:R:1:local_virial:R:9
 Si              1.88656302      1.81968306      0.22437660     -0.10155523      0.05572112     -0.11329024      14       0       0       0      34      0.00000000      0.15641845     -0.06682594      0.20006159     -0.06065959      0.08328583     -0.02869267      0.28062447     -0.00722867      0.70879359
 Si              0.56756737      3.37392061      1.96813137     -0.14864088      0.11149658     -0.06162733      14       0       0       0      36      0.00000000      0.47946235     -0.23525979      0.21110450     -0.29718938      0.16537918     -0.15803952      0.21508946     -0.10229547      0.11023040
 Si              6.21499812      1.81331013      1.71623769      0.06877931      0.00822571     -0.10169478      14      -1       0       0      32     -0.04777821      0.32318675      0.11369413     -0.38541812      0.11083206      0.14089911     -0.18105404     -0.30709306     -0.12625281      0.62327757
 Si              3.77581962      0.63460088      1.62759859     -0.09394059     -0.02938513     -0.13892906      14       0       0       0      35     -2.66844760     -0.03865154      0.12465233     -1.63836761      0.14502650      0.69836036     -2.71344007     -1.91669155     -3.21957801     13.14663715
 Si              9.47305620      3.25549631      0.44232232      0.00000000      0.00000000      0.00000000      14      -1       0       0      38      0.00000000      0.00000000      0.00000000      0.00000000      0.00000000      0.00000000      0.00000000      0.00000000      0.00000000      0.00000000
 Si              8.70473658      0.93504338      0.99714227      0.01050465      0.00266103     -0.01929280      14      -1       0       0      36      0.00000000      0.02199929      0.00534743     -0.03116911      0.00557285      0.00135461     -0.00789575     -0.04040382     -0.00982106      0.05724509
 Si              1.42734737      6.43333417      2.73989379     -0.13600105     -0.04252370     -0.01248851      14       0      -1       0      36      0.00000000      0.23519737      0.29497410      0.06537549      0.30111560     -0.07878013      0.05220788      0.06005201      0.08691666      0.01598242
 Si              3.01041991      4.31935673      2.11797362     -0.08670897      0.26571485     -0.15293230      14       0       0       0      34      0.00000000      0.03837089     -0.25368497      0.15985560     -0.20918585      0.50877202     -0.42054527      0.14323439     -0.42229663      0.24688144
 Si              4.39134548      4.86422928      0.24694909      0.00049681      0.00139324      0.00773717      14       0       0       0      32      0.00000000      0.00018607      0.00021706     -0.00121294      0.00080052      0.00499488     -0.00217475      0.00163092     -0.01655845     -0.02446674
 Si              4.15866350      6.65980755      3.31281685     -0.01251348     -0.47163852     -0.20623866      14       0      -1       0      37     -0.02079799     -0.36747504     -0.10931659     -0.03790259      0.26309268      0.98296268      0.40529509      0.06308583      0.58203189      0.21655395
 Si              5.85194505      6.42415073      1.66821375     -0.03909927      0.05362329      0.07974384      14      -1      -1       0      32      0.00000000     -0.04656984      0.06988190      0.05512187      0.03995316     -0.11483276     -0.09618113      0.07762295     -0.17333172     -0.11751165
 Si              7.63191628      4.39336711      1.75681136     -0.00406753      0.00241810      0.00174803      14      -1       0       0      35      0.00000000     -0.01412756      0.00921881      0.00632910      0.00839869     -0.00548049     -0.00376258      0.00607135     -0.00396181     -0.00271994
 Si              9.96131070      5.39817009      2.56896151      0.00746956      0.00011052      0.02179944      14      -1       0       0      34      0.00000000     -0.02269947      0.04122178     -0.01163128      0.00532627     -0.03496592     -0.00091833     -0.04519360     -0.01197759     -0.03671984
 Si              8.46887822      7.11376756      1.01692031      0.00000000      0.00000000      0.00000000      14      -1      -1       0      36      0.00000000      0.00000000      0.00000000      0.00000000      0.00000000      0.00000000      0.00000000      0.00000000      0.00000000      0.00000000
 Si              1.73372708      9.91202287      2.66201895     -0.39319972     -0.31107646     -0.44799114      14       0      -1       0      37     -4.02435398      8.18550980      5.84359786     10.36453515      5.92109025      4.13990995      6.09941060      4.87290428      3.46616531     12.75293452
 Si              2.55997483      7.92373822      1.02047127      0.02121171     -0.06911351      0.00154218      14       0      -1       0      32     -0.05071085      0.16487259     -0.10336870      0.03239800     -0.04367685      0.20884602      0.26483647      0.08545634      0.17459334      0.13392428
 Si              4.58581604      9.16626484      2.42642973      0.36067336     -0.07793105     -0.02543682      14       0      -1       0      36     -3.15536062      4.36136850     -5.04637897     -7.13887835     -5.40086184      8.89049499      8.42558133     -6.48734618      6.88053656     13.51900629
 Si              6.90999938      9.90703597      0.67909461      0.03567760      0.04320926     -0.03769620      14      -1      -1       0      33      0.00000000      0.02255353      0.06396160     -0.13972570      0.08073205     -0.02279307     -0.09062998     -0.06977951     -0.08664273      0.12888358
 Si             10.01972997     10.09861392      2.22143116     -0.20141243      0.04104983     -0.07684667      14      -1      -1       0      33      0.00000000      0.70286711     -0.11928413      0.07867288     -0.11832933      0.07090876     -0.06021632      0.08665716     -0.04351346      0.10030123
 Si             10.64112781      8.45723907      0.56923028     -0.02100680     -0.02137656     -0.01445418      14      -1      -1       0      38      0.00000000      0.03136637      0.01189972      0.06180256      0.03467936      0.01708656      0.05813198      0.02107303      0.00726972      0.04340234
 Si              7.89920815      8.72904841      2.68932381     -0.00360064      0.00818950     -0.04362012      14      -1      -1       0      34      0.00000000     -0.04399280      0.02439749     -0.09045106     -0.01567902     -0.00167025     -0.00101485     -0.08731461      0.00177897      0.04830760
 Si              1.61837173      2.94934433      4.19050990     -0.15936695      0.51029797     -0.26938593      14       0       0       0      32     -0.65284884      0.91625764     -1.35685091      0.07054912     -4.75479333      8.29450436     -1.20623278      1.20525333     -2.15924984      0.30154821
 Si              5.24227556      1.46172301      5.99849785      0.91883906      0.46045968      0.66014281      14       0       0      -1      33     -4.03884846     11.60348665      7.89787660      7.52779683      9.13622298      5.43958215      5.04962333      6.90301936      3.62567566      5.51241553
 Si              6.61049306      0.42599002      3.96431620      0.53967864      0.00124078     -0.18930869      14      -1       0       0      30     -2.61514826     13.80199629      3.94340540     -4.86342293      1.66894834      0.19519416     -0.56712858     -1.82410976     -0.48049739      1.04703626
 Si              3.92536181      2.02872311      3.82700681     -0.06011583      1.02725678     -0.24556628      14       0       0       0      35     -4.88607242      2.45260657     -1.85838192     -0.84323521      0.93174265     12.07243970    -11.09104681     -1.05914748     -7.00202191      5.38055002
 Si              7.58938321      3.07229154      4.23682185     -0.05490676     -0.01887965      0.01982744      14      -1       0       0      35      0.00000000     -0.19507900     -0.06235400      0.03984665     -0.02619114     -0.04152420      0.03539953      0.02262078      0.03302778     -0.06688187
 Si              9.13932955      0.72776666      4.11461386     -0.20691072      0.06108329      0.00739153      14      -1       0       0      33      0.00000000      0.12550032     -0.22144891     -0.11143102     -0.19113422      0.17169983      0.01748399     -0.03349975      0.00097515      0.05809360
 Si             10.66393776      2.09915344      5.67217720     -0.20667364      0.08547326      0.09237766      14      -1       0      -1      37     -0.05357758      1.16785881     -0.71481092     -0.52141052     -0.73093236      0.50558367      0.30780727     -0.40224418      0.22648315      0.10238703
 Si              8.35381809      3.38764036      6.61289051      0.03914336      0.00624403      0.00414866      14      -1       0      -1      33      0.00000000     -0.00311245      0.06906677      0.04521292      0.07191855      0.02814278      0.01690045      0.05196796      0.02021084      0.01264148
 Si              0.10689220      4.65773574      6.43444200     -0.01844656     -0.02472332      0.05872833      14       0       0      -1      32      0.00000000      0.03562047      0.02587703     -0.01480849      0.04281936      0.10151968     -0.00910603     -0.08655480     -0.00269911      0.09965360
 Si              2.08644040      5.41573807      5.16753470     -0.02711840     -0.07944451     -0.00177098      14       0       0       0      35      0.00000000      0.04817223     -0.13314043     -0.02069463     -0.13571916      0.12530839     -0.04229267     -0.02718268     -0.03765086     -0.02240541
 Si              5.50097263      3.93409966      3.78308573      0.32895408      0.26923081      0.10338355      14      -1       0       0      36     -0.05237472      0.54336823      0.70369307      0.04422953      0.71603086      0.59803904      0.19599867      0.07109903      0.23679939     -0.03026235
 Si              4.55165546      5.48179664      5.57575179     -0.00257121     -0.07688208     -0.02597166      14       0      -1      -1      34      0.00000000     -0.01304030     -0.16986104     -0.01011185     -0.04243633      0.00511564     -0.07257330     -0.02021135     -0.14901441     -0.03744254
 Si              4.69813849      3.63249921      7.17760474     -0.05303606      0.24535500      0.06738755      14       0       0      -1      34     -0.05150682      0.12588084     -0.08540644     -0.04903821      0.01561590      0.83085913      0.18510553      0.01896800      0.20105252      0.09478858
 Si              9.10324296      5.53071133      4.91027152      0.01853196      0.02446873     -0.01491147      14      -1      -1       0      35      0.00000000     -0.04874120     -0.05279448      0.01243222     -0.06651002     -0.05158751      0.01624338      0.04076069      0.03445538     -0.01037179
 Si              0.78300720      8.19803846      4.30060576      0.20054407     -0.12445678     -0.03887263      14       0      -1       0      32     -0.25257114      2.70565456      2.18590952      1.49724725      2.81261648      1.99802827      1.26367918      1.20456454      0.87679572      0.47799290
 Si              1.89147419      8.10910749      6.38666192      0.03760481      0.00657716      0.12126802      14       0      -1      -1      33     -1.04411548      2.29518059      1.90927552     -1.66847321      2.78612655      5.90210212     -5.90046194     -0.51499091     -3.00296809      5.43981338
 Si             -0.06852307      9.87879835      7.17554366     -0.19317758     -0.07528121      0.22968994      14       0      -1      -1      34     -0.05321028      0.60017634      0.17353090     -0.36987800      0.24740568      0.07046265     -0.08456450     -0.56687506     -0.07897888      0.41448101
 Si              4.49234928      8.06077171      6.38616253     -0.02282107     -0.19391681      0.35787884      14       0      -1      -1      33     -1.20661462      3.67050236     -3.47482207      2.19691890     -3.34420906      8.60566814     -5.56514983      2.66403055     -6.89377326      5.73900912
 Si              5.91816775      8.81089165      4.39098075     -0.14027867     -0.01933754      0.04119658      14      -1      -1       0      36     -2.00539155     12.36551090     -6.92270085     -0.58461324     -8.23453130      8.92494309     -0.31664563     -3.75057355      1.85672324      1.73320124
 Si              9.21331539      8.04397957      4.72579697      0.06646980      0.00284264     -0.01646431      14      -1      -1       0      34      0.00000000     -0.10116245     -0.05631092      0.10895565      0.00871965     -0.02014849      0.01764204      0.07440233     -0.00232902     -0.03680147
 Si              8.91650387      9.93091694      5.90949570     -0.10789843      0.01258215     -0.03614411      14      -1      -1      -1      29      0.00000000     -0.06395788     -0.07907951     -0.12677976     -0.05661930     -0.02525890     -0.01991664     -0.09797636     -0.01628260     -0.04725721
 Si              3.37700578      2.15866759      9.21348120      0.01500049     -0.01562569     -0.04517201      14       0       0      -1      35      0.00000000     -0.04824391      0.05265196     -0.00168158      0.04154724     -0.09344489     -0.12617186      0.06083653     -0.10280799      0.29586913
 Si              0.46741210      1.69626183      7.89010911     -0.04295662      0.02978266      0.08018293      14       0       0      -1      35     -0.05058806      0.18817524     -0.10743917     -0.25637873     -0.11381840      0.08856975      0.16538701     -0.23324844      0.14321460      0.30415822
 Si              2.36341067      0.16101443      8.06194848      0.05564530     -0.06077066     -0.05533497      14       0       0      -1      33     -1.32935790      1.25187005      0.16154642     -1.57815357      0.30146916      0.28493866     -0.67763576     -4.22266929      0.83027778      9.86248323
 Si              0.58032634      3.58118240      9.62858263     -0.00195906      0.00727956     -0.00120160      14       0       0      -1      35      0.00000000      0.00483845     -0.00770594     -0.00182918     -0.01308690      0.02497718      0.01130594      0.00339196     -0.00504363     -0.00073087
 Si              5.22561990      2.73155169     10.58158094      0.01091320      0.00293938      0.00530128      14       0       0      -1      35      0.00000000      0.01468863      0.01231893     -0.03774029      0.00383508      0.00218830     -0.01194729      0.01135110      0.04528666      0.04367179
 Si              6.76001688      2.83153385      8.40749825      0.00673772      0.01206782      0.03404263      14      -1       0      -1      36      0.00000000      0.01235276      0.02087379      0.00835360      0.02309261      0.04268580      0.01137707      0.05217459      0.04940630      0.08013182
 Si             10.39130859      0.10326650      9.64382442     -0.02805518     -0.02088724     -0.04163902      14      -1       0      -1      31      0.00000000      0.09797992      0.01036335     -0.03790310      0.02061140     -0.01950473     -0.04695086      0.03077310     -0.04054770     -0.09893550
 Si              7.65203231      0.60920401      9.36184308      0.02849913     -0.00539787      0.02513275      14      -1       0      -1      33      0.00000000      0.05219804     -0.03668874      0.10549278     -0.00368879      0.01240245     -0.02412998      0.06175195     -0.06853914      0.11553705
 Si              2.88642451      6.14095266      9.75364169      0.00131970     -0.03945162      0.07382663      14       0      -1      -1      38      0.00000000      0.04143533     -0.00334303      0.00443571      0.01472410      0.07664377     -0.13284316     -0.01665549     -0.14362761      0.24859007
 Si              2.40156747      4.48726265      8.16367848      0.00586508      0.03826927      0.06784977      14       0       0      -1      33      0.00000000      0.00442958     -0.00140739      0.02561373      0.00504267      0.34315260      0.04521318      0.04432797      0.04034840      0.21172887
 Si              6.97141498      4.88394250     10.00552483      0.00000000      0.00000000      0.00000000      14      -1       0      -1      34      0.00000000      0.00000000      0.00000000      0.00000000      0.00000000      0.00000000      0.00000000      0.00000000      0.00000000      0.00000000
 Si              4.97889074      6.32374569      8.47748230     -0.05484404      0.09569661     -0.11124525      14       0      -1      -1      35      0.00000000     -0.07627286      0.10119288     -0.11223545      0.05674424     -0.14680525      0.20973455     -0.07040334      0.19874277     -0.23009755
 Si             10.14574151      5.60981841      8.44889369     -0.02099013     -0.02162888      0.01707886      14      -1      -1      -1      31      0.00000000      0.05539338      0.05246041     -0.04328652      0.05707905      0.05405682     -0.04460376     -0.04507147     -0.04268502      0.03522058
 Si              7.80377511      5.73404798      7.83879129      0.02579750     -0.01650797      0.01031755      14      -1      -1      -1      35      0.00000000      0.08542649     -0.06002365      0.03747418     -0.05466491      0.03840948     -0.02397995      0.03416580     -0.02400609      0.01498757
 Si              1.76154662      8.06183804      8.79828869     -0.03797796     -0.08541621      0.00243374      14       0      -1      -1      36      0.00000000     -0.00615260      0.12245226     -0.03215260      0.11671963      0.14077851     -0.13313409     -0.00509837     -0.10410205     -0.04702658
 Si              1.78286795     10.17319333     10.40534237      0.01632357      0.07617723     -0.20486513      14       0      -1      -1      31      0.00000000      0.07959079     -0.09069681      0.14457929     -0.07883439     -0.03889247      0.02057061      0.28150271      0.00880234      0.02391963
 Si              5.25043789      7.99017005     10.75386165      0.00527456     -0.02945871      0.10858955      14       0      -1      -1      34      0.00000000      0.00631310     -0.01209928      0.08623783     -0.01344991      0.11231062     -0.23575549      0.03718224     -0.24052566      0.28631012
 Si              4.84764232     10.24767891      7.46031474      0.17794728     -0.12210000      0.54867922      14       0      -1      -1      31     -2.32373313      4.61158797     -2.70219268      5.39196346     -2.10128523      1.85049732     -1.35345269      8.53949001     -3.44099932     13.92669259
 Si              4.42813907     10.30828808     10.25336056     -0.02899046      0.01548057      0.02354642      14       0      -1      -1      37      0.00000000     -0.00193744     -0.00140623     -0.00314505     -0.00294177      0.00331720      0.05129571      0.02540672      0.04832199     -0.29452339
 Si              7.14159676      9.80614956      7.82449657      0.09043701     -0.05307738      0.03699749      14      -1      -1      -1      33     -0.06008793      0.15738581     -0.13034952      0.03009807     -0.10714223     -0.07455442     -0.08499784      0.05821722     -0.10874022      0.00924617
 Si              7.46850280      7.94290520      9.38104556      0.08872405     -0.04787729      0.06650946      14      -1      -1      -1      34      0.00000000      0.19793093     -0.15009346      0.19787800     -0.15168367      0.10439544     -0.09444926      0.21119746     -0.10183473      0.15253045
 Si             10.01423157      8.20327909      9.11234236     -0.03860904      0.01296574      0.02706306      14      -1      -1      -1      34      0.00000000      0.08624343      0.02459875     -0.09170829     -0.02859678      0.00304163      0.03698586     -0.07054572     -0.00474758      0.07018726
 Sb             -7.48374515     10.68597237      4.76013119     -0.43361240     -1.44341784     -0.25315006      51       1      -1       0      36     26.35734914    -64.12599551      0.69536995     -5.30237484      0.74219918    -59.29385750      6.70139372     -2.96774835      6.83611291    -83.24618666
 65
 config_type=Sb_disordered virial="15.54937384       8.88439884      -4.26834652       8.88439884      32.16435306       4.45117238      -4.26834652       4.45117238      20.49457914" energy=-.69138379103412007 cutoff=5.00000000 nneightol=1.20000000 pbc="T T T" Lattice="11.01467416       0.00000000       0.00000000       0.00000000      11.00790202       0.00000000       0.00000000       0.00000000      10.98449965" Properties=species:S:1:pos:R:3:force:R:3:Z:I:1:map_shift:I:3:n_neighb:I:1:local_energy:R:1:local_virial:R:9
 Si              2.20751825      0.19552425      2.68171193     -0.09351465     -0.00714365      0.04981584      14       0       0       0      34      0.00000000      0.00318477      0.03833147      0.19006165      0.01323468      0.05674180      0.03498722      0.16205905      0.00762141     -0.08461302
 Si              4.91176999      2.73799371      1.19738154      0.02873361      0.00673205      0.02877655      14       0       0       0      35      0.00000000     -0.05364325      0.01970054     -0.05416927      0.00037588      0.01035532     -0.02390726     -0.07476513      0.00681154     -0.03548109
 Si              6.60637489      1.85984596      3.24928167     -0.81972294      0.40961862     -0.51245432      14      -1       0       0      33     -4.18762379      9.86618025     -0.57622292     10.72035531     -0.11307136      0.41712371     -0.09234882     10.09422781     -0.63430628     14.97944955
 Si              4.21055468      0.43245746      0.99660163      0.00628083      0.00219062      0.02548292      14       0       0       0      36      0.00000000     -0.02380141     -0.00851374     -0.00706204     -0.00559762     -0.00428605     -0.00451006     -0.03508011     -0.01595426     -0.08105446
 Si              9.10704345      1.04951028      3.30990213      1.34563279     -0.61283706     -2.47346224      14      -1       0       0      34     -5.79240808      2.99164190     -3.89775683     -9.21800910     -2.92751028     -1.29133332      5.74792353     -8.23337084      8.11019660     19.10348740
 Si             10.63981677      1.81991020      1.37299417      0.33904636      0.17681838     -0.28565552      14      -1       0       0      35     -0.05289862      0.64079568      0.25098566     -0.67256223      0.23840922      0.10485635     -0.32139227     -0.68970464     -0.31762532      0.69912552
 Si              8.55614593      2.64893161      0.17468030      0.03482019     -0.03143301     -0.03345979      14      -1       0       0      32      0.00000000     -0.03669828      0.01726492      0.12536735      0.01175170     -0.04335458      0.16594644      0.04773988      0.14496791      0.21282644
 Si              1.75455143      6.06041839      2.32796268      0.01031699      0.00729584     -0.00336815      14       0      -1       0      33      0.00000000      0.01470440      0.02452967     -0.02497761      0.01039847      0.01734658     -0.01766334     -0.00480049     -0.00800811      0.00815435
 Si              3.51521478      4.15084109      2.99945109     -0.01537738      0.01880985     -0.00259011      14       0       0       0      33      0.00000000      0.04814025     -0.03791781      0.03265168      0.00802450      0.01857766     -0.01668804     -0.00848668      0.02821160      0.05657260
 Si              2.93600614      4.25687792      0.65551070     -0.00017277      0.00023545     -0.00017104      14       0       0       0      31      0.00000000      0.00053508      0.00006556      0.00045564     -0.00072917     -0.00008934     -0.00062092      0.00052972      0.00006490      0.00045108
 Si              6.03298621      4.63632801      3.29271935     -0.17895061      0.05069329     -0.04951595      14      -1       0       0      35     -0.04712879      0.68646923     -0.58780052      0.48157886     -0.47185986      0.59541070     -0.41576078      0.41473710     -0.44595728      0.37057937
 Si             10.65566281      4.43381416      2.11821722      0.15128262      0.06296416     -0.17173626      14      -1       0       0      35      0.00000707      0.30056142      0.10282390     -0.30492022      0.05915684      0.12037998     -0.14552223     -0.28362324     -0.18754712      0.25084819
 Si              7.64711491      4.78168299      1.18569245     -0.06043393      0.01415830     -0.06325429      14      -1       0       0      36      0.00000000      0.04243066     -0.09393634      0.07373423     -0.05075970     -0.00664073      0.01768069      0.03371334     -0.04370762      0.31103613
 Si              9.44981915      6.54883031      3.40060686      0.06054033      0.18919950     -0.04660336      14      -1      -1       0      33      0.00000000      0.06600859      0.17209700     -0.03159565      0.15761647      0.45223546     -0.16096703     -0.01249057     -0.11817241      0.09432259
 Si             10.49765759      5.76036223     10.98375919      0.01074939      0.01728469      0.04866684      14      -1      -1      -1      34      0.00000000      0.01086371      0.02998711      0.01999927      0.01400386      0.04172605      0.03922368      0.02814151      0.09633216      0.13345781
 Si              3.03808896      8.85971089      0.29498850      0.00000000      0.00000000      0.00000000      14       0      -1       0      31      0.00000000      0.00000000      0.00000000      0.00000000      0.00000000      0.00000000      0.00000000      0.00000000      0.00000000      0.00000000
 Si              0.66656621     10.21828205      0.99503653     -0.04128640      0.00529418     -0.01789610      14       0      -1       0      32      0.00000000     -0.07305498      0.07142126      0.07932107      0.04087665     -0.00961943      0.02930578      0.01559708      0.03151271      0.00386379
 Si              0.04223316      7.90089324      1.58507101      0.00517300      0.00880667     -0.00664765      14       0      -1       0      32      0.00000000      0.01010068     -0.00524746     -0.01453648      0.01719569     -0.00893343     -0.02474733     -0.01298003      0.00674333      0.01868032
 Si              7.02846183      7.35627258      2.04055149     -0.02267287      0.02053707     -0.00009085      14      -1      -1       0      35      0.00000000      0.01574441      0.03937346      0.04938911     -0.00264679      0.00496857     -0.03957735      0.03342856     -0.03121674      0.00221387
 Si              6.54119883     11.00380482      1.62255523      0.01933009     -0.07265584      0.02149691      14      -1      -1       0      36     -0.05066649      0.04316136     -0.00210041      0.04629035      0.04771001      0.18009164      0.18757832      0.06819583      0.10070920      0.02953128
 Si              3.79652231      7.37807692      2.55961991     -0.01470965     -0.01533431     -0.00992356      14       0      -1       0      35      0.00000000      0.03544883      0.03265060      0.02228183      0.03655835      0.02271294      0.02144391      0.02378774      0.01839153      0.01445920
 Si              5.44098069      7.59333493      0.08191566      0.00045526      0.00027315      0.00415549      14       0      -1       0      32      0.00000000     -0.00032280     -0.00017818     -0.00170190     -0.00031907     -0.00369388     -0.00158624     -0.00300705     -0.00335918     -0.01580766
 Si              8.52629222      9.31303976      1.86330884      0.05183805     -0.30838980     -0.31919939      14      -1      -1       0      37      0.00000000      0.14039648     -0.14540675     -0.15826958     -0.18032407      0.77856388      0.63327570     -0.19672127      0.61523078      0.81089743
 Si              0.32929149      3.68281966      4.74897909     -0.30293212     -0.15739679      0.01804023      14       0       0       0      32     -1.57216018      8.35053947      5.86448763     -1.71853275      4.53248241      3.12823793     -0.40234018     -3.67330273     -2.14472174      0.82101794
 Si              0.30223794      1.07677090      4.33611778      0.13933532     -0.03545497     -0.14807616      14       0       0       0      31     -2.37960476     12.78516970     -2.48565120     -5.46085074     -2.99421671      4.04589241      0.38174468     -4.66438295     -0.00601950      3.68583918
 Si              2.74509551      2.44019395      4.47187048     -0.09840257      0.03274510     -0.02381368      14       0       0       0      33      0.00000000      0.07555181      0.09320365     -0.03312949      0.18004001      0.08745461     -0.05041135     -0.04803515     -0.03478057      0.08810360
 Si              4.65808105      0.81113908      4.96509657      0.07325275     -0.01034813     -0.14576840      14       0       0       0      31     -0.67032855      0.01881839      0.48087791      0.32039132     -0.84555227      0.45241858      0.10517573      1.34291335      0.57076978      0.18260817
 Si              7.17645099      0.07112519      5.38208059     -7.39631004     -9.39278801     -0.15139561      14      -1       0       0      34     -7.13487379     -3.01961989      9.79621097     -0.36158952      2.01422037      2.46801645      2.44019662     -3.41990466      0.01781526     -3.94877136