15
Lattice="7.56311613909787 -0.1390180185849784 -0.10303045410862402 3.769512877212481 6.575673506707571 -0.1796285627098901 3.728357788268693 2.1162331091207847 6.197754909408754" Properties=species:S:1:pos:R:3:force:R:3 config_type=Bi_vac virial="9.059866234142737 -4.593954012419493 -3.8131725097265465 -4.593954012419493 8.249257061180092 1.1396300381172182 -3.8131725097265465 1.1396300381172182 20.840356420105536" energy=-3.044262439999997 pbc="T T T"
Si       1.68248442       0.89963462       2.97878433      -0.17665720      -0.29361850      -0.57960218
Si       3.55687954       1.94531597       3.83400222       0.00452256      -0.35888137      -7.12659376
Si       1.73731732       3.25463498      -0.18858053      -0.43414188      -0.56046642      -0.08669800
Si       3.64323202       4.17046607       0.48884146       0.09647827      -1.52471476       0.71642257
Si       3.66470477       4.16680672       2.99480108      -0.07068818       0.16082401      -0.18635795
Si       5.42308920       5.36195530       3.56462445       0.14781967       0.19513758       0.18363717
Si       3.66259193      -0.16326345      -0.16923490      -0.71786326       0.02948178       0.12714062
Si       5.46471383       0.84780168       0.63892005      -3.57778406       1.72478365       1.50745067
Si       5.63040805       0.93351546       2.89901533      -0.02120584       0.02723150       0.34368009
Si       7.38346314       1.94201653       3.55839470       0.21175014       0.07245771       0.16110594
Si       5.70066802       3.02978523      -0.11127266      -0.22350371       0.37038682      -0.05901378
Si       7.57994062       4.28647969       0.38355041       0.25250244       0.10826528       0.04241284
Si       7.50656211       4.20897563       2.83950529      -0.08739031      -0.01677598      -0.08188232
Si       9.29547624       5.15890593       3.60977090       0.03037247      -0.11967313       0.01382498
Bi      -0.18585601      -0.00031096      -0.14610667       4.56578887       0.18556183       5.02447311
15
Lattice="7.660027668116348 -0.15172593260403555 -0.16564485309534685 3.7649717456913367 6.590586007944128 -0.12023144996983148 3.703148271533892 2.095353469663075 6.188963925794171" Properties=species:S:1:pos:R:3:force:R:3 config_type=Bi_vac virial="19.173344693966776 5.160947583130886 3.3511434755540876 5.160947583130886 18.372958757922337 0.3731405765193556 3.3511434755540876 0.3731405765193556 13.077871840478345" energy=-2.7911711599999904 pbc="T T T"
Si       1.75827441       0.97359057       0.74893044       6.62402177       4.11741396       2.73786720
Si       1.69562418       0.94362794       3.07469628      -0.00458227       0.00184369      -0.09688008
Si       3.71348560       2.05611357       3.72311619      -0.05427811      -0.13467668      -2.58618852
Si       1.87361788       3.32005313      -0.13308471      -0.61265080      -0.00135078       0.04905654
Si       3.79871986       4.28191407       0.61766048      -0.02216807      -5.30571860       1.49546195
Si       3.67419572       4.20431490       2.96893518       0.01502804       0.14900750       0.13579064
Si       5.55033320       5.22272536       3.72390005       0.27733200      -0.07632562       0.09977509
Si       3.80132027      -0.25348406      -0.34428340      -0.12710962      -0.48273410      -0.00028288
Si       5.57597546       0.90545454       0.50397321      -2.46081426       1.20490750       0.62222893
Si       5.62516335       0.81448141       2.85088608      -0.02149493       0.00655972       0.18613602
Si       7.48350676       1.96011257       3.67829432       0.04460079       0.24824863       0.12279644
Si       5.65200739       3.16175440      -0.18916104       0.54988287       0.31587592       0.10724114
Si       7.38239337       4.27770084       2.80204491      -0.10990174      -0.05242872      -0.34638874
Si       9.33434089       5.26714180       3.67296031      -0.20919938      -0.08947057       0.07787880
Bi      -0.01948462      -0.11562480       0.01408300      -3.88866632       0.09884813      -2.60449251
15
Lattice="7.5904530427186225 -0.10554825908451664 -0.1246916269774299 3.707285350370114 6.556292537663229 -0.17470791428732502 3.716724069176757 2.132430541436567 6.217451826653834" Properties=species:S:1:pos:R:3:force:R:3 config_type=Bi_vac virial="14.028736704955207 3.6702668034550854 2.7330512468832895 3.6702668034550854 13.62158408155291 0.3239260708361211 2.7330512468832895 0.3239260708361211 18.183543350626863" energy=-3.068959469999996 pbc="T T T"
Si       1.84201921       0.89784043       0.73789888       4.57294558       2.56990104       2.04872956
Si       1.69944423       0.95172001       2.91839133       0.19614534       0.11659117       0.36828121
Si       3.64746865       2.10749402       3.81904034       0.01659875       0.07879056      -5.05167652
Si       1.73389043       3.13010905      -0.16695779       0.11516874       0.45936554      -0.11038084
Si       3.58042896       4.18297653       0.50662149      -0.02087340      -4.06238136       1.33508367
Si       3.53186480       4.29479653       2.84507003       0.01283610       0.19973493      -0.00522100
Si       5.46826074       5.32177125       3.61118847       0.03076758      -0.10818728      -0.03170363
Si       3.74313988      -0.13786955      -0.17376591       0.36739867      -0.15910817      -0.11045377
Si       5.47101152       1.00043766       0.57271786      -1.62835836       1.35741121       0.78569739
Si       5.64104826       0.86123949       2.87698433       0.02855022      -0.11404042      -0.04120066
Si       7.49260543       1.93883800       3.69244049      -0.09324157       0.05301725      -0.03693137
Si       7.50678803       4.24250170       0.40129309      -0.42585968      -0.25570536      -0.11710908
Si       7.46982188       4.24475026       2.88044248       0.19142120       0.09570952      -0.14653710
Si       9.17748417       5.29267678       3.68930617       0.01094844       0.05205840       0.40985608
Bi      -0.04088901      -0.11599189      -0.06677213      -3.37444762      -0.28315703       0.70356605
15
Lattice="7.651599031149428 -0.183778260309801 -0.17664566482800254 3.7289333768893482 6.585919206571396 -0.10302407205165533 3.7567852226207976 2.124456961483055 6.23225983224308" Properties=species:S:1:pos:R:3:force:R:3 config_type=Bi_vac virial="11.045850427151994 5.51534955125191 3.770024521711726 5.51534955125191 11.313493793589698 -0.19015710702101618 3.770024521711726 -0.19015710702101618 19.171019868691523" energy=-2.8777134600000096 pbc="T T T"
Si       1.81550428       0.88776682       0.69447797       4.58628659       2.48918669       1.69104859
Si       1.79063448       0.87603196       3.00323167      -0.04889282      -0.03768101       0.00685471
Si       3.57911000       1.97614992       3.85629223      -0.05947346      -0.30130641      -6.03990983
Si       1.83238389       3.25349789      -0.10303162       0.16518566      -0.14012314       0.15470725
Si       3.76728257       4.31630501       0.68529213      -0.08630465      -2.67736674       0.95511959
Si       3.65883051       4.26186352       3.06715886       0.00967589       0.05814195      -0.19799888
Si       5.48490289       5.24413937       3.67799071       0.07329239      -0.04501967       0.02577626
Si       3.65384095      -0.09459839      -0.19252759       0.59856388       0.05449761       0.11649918
Si       5.58799416       0.95371595       2.94266986       0.22260135      -0.18355550      -0.60292845
Si       7.60224729       1.90456232       3.61378990      -0.23388837       0.04542544       0.10944011
Si       5.64429089       2.99307513      -0.14630267       0.15511476      -0.41066707       0.03354803
Si       7.59643094       4.25034871       0.54880776      -0.18645518       0.12513934      -0.01360429
Si       7.52559039       4.10460300       2.86494758       0.08187254      -0.03585038      -0.03248225
Si       9.36232328       5.20772363       3.74933893      -0.13646374       0.15977160       0.14119878
Bi      -0.12392301      -0.01493505      -0.12432522      -5.14111485       0.89940727       3.65273122
15
Lattice="7.618054355046248 -0.19979766969965929 -0.11753904994320069 3.780453606668893 6.598313398767712 -0.16141200129659733 3.698139785625701 2.136856874575145 6.196793354335996" Properties=species:S:1:pos:R:3:force:R:3 config_type=Bi_vac virial="15.66643168319556 2.585287801656612 2.7674346147280358 2.585287801656612 13.468175036573927 1.0979133089867124 2.7674346147280358 1.0979133089867124 14.635314103497144" energy=-3.205379410000006 pbc="T T T"
Si       1.89924125       0.93954331       0.60879344       4.80337264       2.76334427       1.76387703
Si       1.73190560       0.98096027       3.09769823      -0.09237993      -0.00888364      -0.06093629
Si       3.60327925       1.96276297       3.78777082      -0.11611466      -0.17209851      -3.84580426
Si       1.80344353       3.29779528      -0.13260051       0.07895985       0.28002816      -0.07896903
Si       3.80244308       4.26258024       0.61071487       0.33222734      -3.75838548       1.28238564
Si       3.51613146       4.19651901       3.00074218      -0.03674105       0.43183718      -0.32017136
Si       5.44888967       5.34880068       3.71557351       0.05574638      -0.09210768       0.02926476
Si       3.67345632      -0.17295863      -0.31750367       0.37666804      -0.09926969      -0.12686342
Si       5.45412460       0.79747680       0.61286339      -2.25017517       1.38418586       0.84820810
Si       5.51372495       0.85377305       3.00729826       0.24441287      -0.12161060      -0.24060240
Si       7.47157475       1.90561310       3.59882363      -0.01650028       0.09497125       0.04793391
Si       7.52577118       4.30005170       0.41061753      -0.35837577      -0.14196332      -0.10357780
Si       7.36533030       4.13141632       2.88204535       0.13121424       0.07604345      -0.11401028
Si       9.22885308       5.16131591       3.73668234      -0.01290405      -0.11226431       0.41453956
Bi      -0.05411198      -0.06187873      -0.02882797      -3.13941046      -0.52382692       0.50472586
15
Lattice="7.631608240042875 -0.12744168487591934 -0.1778936135148821 3.695399151291327 6.585476946106719 -0.15085516372516206 3.761427928120196 2.045840752657962 6.1475815167265875" Properties=species:S:1:pos:R:3:force:R:3 config_type=Bi_vac virial="13.96230002665325 2.7946096424095925 1.8218779912321903 2.7946096424095925 13.910445311270022 -1.4654823816346025 1.8218779912321903 -1.4654823816346025 19.03415223624637" energy=-2.9537565299999926 pbc="T T T"
Si       1.86671802       1.01011283       0.65709041       3.72113742       2.34089979       1.66640096
Si       1.73099730       0.93552678       3.00290567       0.20591598       0.13545018       0.41516632
Si       3.69924486       2.02143684       3.79215025      -0.16059211       0.36581972      -6.49399938
Si       1.77199778       3.16595894      -0.20410328       0.08997210       0.36905836      -0.03565921
Si       3.69291123       4.21872785       0.58081764      -0.02365156      -3.96165649       1.77414622
Si       5.43158516       5.24222583       3.55223963      -0.25349831      -0.26175388      -0.24756408
Si       3.70954483      -0.10373896      -0.32018278       0.11865332      -0.00045059      -0.00787906
Si       5.51060432       0.97782479       0.43851730      -1.26145280       0.70613889       0.70816033
Si       5.60476811       0.90295976       2.95886686      -0.13238910       0.04032366       0.21509341
Si       7.55223324       1.93814356       3.48292845      -0.00315300       0.07042792      -0.10727498
Si       5.53122158       3.16649130      -0.27306662      -0.03501607       0.30913407      -0.11768547
Si       7.59031712       4.26307454       0.47344947      -0.01231621      -0.08478775       0.10596873
Si       7.45114295       4.24514920       2.80753236       0.06329841       0.20522919       0.17195646
Si       9.20847674       5.18307912       3.55517550       0.22768519      -0.33616194      -0.22095198
Bi      -0.01245356      -0.14369298      -0.08626592      -2.54459327       0.10232887       2.17412175
15
Lattice="7.6325442400935755 -0.16617091217165858 -0.19054206616674088 3.779568473249993 6.555902780359075 -0.11922985972258526 3.727168630249428 2.0671591169950854 6.152428843472094" Properties=species:S:1:pos:R:3:force:R:3 config_type=Bi_vac virial="14.819505670044519 -0.3630693484561043 0.0015080590480325284 -0.3630693484561043 21.846102497852787 -3.3111918209815006 0.0015080590480325284 -3.3111918209815006 13.895984390568136" energy=-2.33395492999999 pbc="T T T"
Si       1.85282306       0.82466835       0.74546339       3.04782694       1.75929124       1.16199054
Si       1.75454456       0.87572693       3.05371411       0.14726925       0.05665448       0.26724265
Si       3.60133733       2.04942521       3.68264886      -0.08275369       0.46491664      -3.52011365
Si       1.91900412       3.27500251      -0.20578734      -0.03659135       0.01689351       0.02410314
Si       3.69537372       4.31311627       0.51428298       0.07913880      -8.35134040       2.89858855
Si       5.47165496       5.24578256       3.57868860      -0.24170749      -0.20702318      -0.26546798
Si       3.69110949      -0.15126998      -0.32331941      -0.28357504      -0.06016026      -0.06003552
Si       5.56159386       0.95371929       0.49999882      -2.74818402       1.77992898       1.18572540
Si       5.65577068       0.78488684       2.86888465      -0.16948020       0.06314410       0.51182668
Si       7.45464398       1.87491799       3.64832475       0.07562883       0.06502851      -0.08487597
Si       5.67321369       3.03890598      -0.11007607      -0.03906590       0.58796374      -0.13773241
Si       7.47749694       4.22705190       0.50485654       0.06367963      -0.03265128       0.12925387
Si       7.56203843       4.15079047       2.85544749       0.01257573       0.18741798       0.16662289
Si       9.26166158       5.14860314       3.63233127       0.23142208      -0.37756569      -0.20804141
Bi      -0.18842376      -0.16539654      -0.04241501      -0.05618358       4.04750164      -2.06908677
15
Lattice="7.618395188933079 -0.14403450172221155 -0.18290662628123394 3.742330830190494 6.518857186351212 -0.142294082964206 3.70998833207705 2.086521972448423 6.2342085327937315" Properties=species:S:1:pos:R:3:force:R:3 config_type=Bi_vac virial="10.011690585708935 -5.649071817653317 -4.793245008924889 -5.649071817653317 13.63194210248756 -1.4353585211396491 -4.793245008924889 -1.4353585211396491 19.01423940387717" energy=-2.512262090000007 pbc="T T T"
Si       1.67261887       0.98336550       3.01520463      -0.42259404      -0.12127964      -0.68505531
Si       3.60195439       2.06176840       3.83459625       0.16557691       0.07908727      -5.91933449
Si       1.88229702       3.25585408      -0.17149293      -0.20123606      -0.73572078       0.02296094
Si       3.65624132       4.26694789       0.53679970       0.10718382      -4.05535061       1.51423873
Si       3.67461028       4.30388561       3.01843530       0.01019412       0.13212527      -0.00949341
Si       5.46618175       5.20916849       3.61421435       0.17062415       0.19420367       0.13942936
Si       3.76326311      -0.12650151      -0.33691163      -0.83762309       0.16704177      -0.01143769
Si       5.63928893       0.89132742       0.52692524      -4.48201427       2.59516197       2.05796815
Si       5.59296650       0.80220986       3.02196926       0.04653890       0.01418190       0.08187821
Si       7.49478989       1.83736279       3.52468867       0.38345901       0.02284275       0.16089232
Si       5.65087016       2.99152394      -0.18687097      -0.07707309       0.26908346      -0.07307625
Si       7.43644622       4.20212151       0.41289637       0.24596497       0.17533831       0.04964479
Si       7.36197611       4.06733706       2.90527736      -0.09080191      -0.05902963      -0.02363407
Si       9.26070115       5.11082052       3.66288094      -0.05167710      -0.09655289      -0.02519682
Bi      -0.15989537      -0.04833732      -0.13163860       5.03347769       1.41886720       2.72021556
15
Lattice="7.59458825507429 -0.14557626072576196 -0.18350204683607793 3.705115080295613 6.507015185372787 -0.10154732327953675 3.7491210314501497 2.0894183945483977 6.174220697158644" Properties=species:S:1:pos:R:3:force:R:3 config_type=Bi_vac virial="20.107090031765722 0.44083448584820806 0.09111244902671745 0.44083448584820806 13.307852714066836 2.6894223364040597 0.09111244902671745 2.6894223364040597 15.937053232737293" energy=-2.410499360000003 pbc="T T T"
Si       1.75386364       0.94750877       0.58954225       5.54047421       3.12309754       2.28269656
Si       3.68121510       2.00896592       3.72317764      -0.19060800      -0.11718826      -5.46491458
Si       1.71859803       3.14665952      -0.25087317      -0.16278137      -0.29204111       0.04841680
Si       3.73951154       4.16603074       0.54959915       0.02075314      -2.55724359       0.77865359
Si       3.50412442       4.14312611       2.95455090      -0.10254399      -0.08004986       0.30691923
Si       5.48585663       5.15670666       3.58868683       0.14572783       0.38463166      -0.18588551
Si       3.69943732      -0.14651172      -0.23220248      -0.60533491      -0.19168891      -0.12405226
Si       5.47465826       0.78728320       0.58235253      -4.02229882       1.98821599       1.81827600
Si       5.59958795       0.94338477       2.92244802       0.05291173       0.04778778       0.54154843
Si       7.44559304       2.02321783       3.54340867       0.41919352      -0.08050092      -0.21490732
Si       5.52819642       3.10310936      -0.14832175      -0.04002457       0.14223239      -0.04757558
Si       7.50771985       4.22607388       0.37774628       0.10954466       0.01201623       0.08254500
Si       7.52519359       4.21540103       2.86913679      -0.23159062      -0.10385281       0.16392037
Si       9.33092646       5.13918351       3.68658112      -0.01166629      -0.09422030      -0.10252214
Bi      -0.18458926       0.00468805      -0.12625212      -0.92175652      -2.18119584       0.11688141
15
Lattice="7.600789684956921 -0.17377837029452894 -0.13835791937428532 3.765083534199243 6.551297185866661 -0.16178002563217103 3.7013478812997387 2.066089436966618 6.154989543073889" Properties=species:S:1:pos:R:3:force:R:3 config_type=Bi_vac virial="10.36537429577208 0.9194467263567354 0.910165821294088 0.9194467263567354 3.0288608926449907 1.2898011926473587 0.910165821294088 1.2898011926473587 22.23002249118521" energy=-3.192487590000013 pbc="T T T"
Si       1.90003093       1.00706859       0.68356353       1.90940294       1.17645676       0.74429571
Si       1.83912690       0.85428334       2.94210180      -0.03500939      -0.00928929       0.03378825
Si       3.53152686       1.96648440       3.79084964      -0.17735097       0.15410350      -7.50239363
Si       1.87467328       3.11000163      -0.18182046       0.31378479       0.42489524       0.04953000
Si       3.54676509       4.12461829       2.94031325      -0.01218658       0.25355101      -0.55014661
Si       5.41892061       5.31408873       3.70904258      -0.05156296      -0.15024750       0.10610158
Si       3.70803095      -0.24735312      -0.15768583      -0.00632273       0.00750349       0.03481972
Si       5.47623985       0.90618669       0.65389236      -0.96024441       0.65121629       0.48221440
Si       5.59423831       0.74650099       2.99645357       0.02021748      -0.03779230       0.02838868
Si       7.49222449       1.92862430       3.56107590      -0.02180066       0.09226791       0.00921254
Si       5.63744951       3.05065737      -0.23633709      -0.29283978       0.46781316      -0.01013915
Si       7.56615026       4.28386723       0.53047749      -0.01602594      -0.09923870       0.01686207
Si       7.37299744       4.06838151       2.79558589       0.00123136       0.04897454      -0.04426733
Si       9.22472652       5.20365812       3.58580321       0.04915696      -0.12660908       0.11751277
Bi      -0.09892535      -0.12810762      -0.16131169      -0.72045007      -2.85360505       6.48422100
16
Lattice="7.5770067193151815 -0.1531704550060778 -0.12990916231039784 3.7285361558812005 6.515448299499117 -0.19143797741434565 3.785774240486396 2.0793459555354996 6.174935578481938" Properties=species:S:1:pos:R:3:force:R:3 config_type=Bi_vac virial="20.014604250053292 4.996321274949166 4.003741898132265 4.996321274949166 16.33892469419986 -0.4297172409253518 4.003741898132265 -0.4297172409253518 18.166255377189763" energy=-1.8172158700000125 pbc="T T T"
Si       1.77874185       0.95333101       0.69190999       7.14787171       4.17330251       3.04702010
Si       1.83741987       0.95370949       3.03141992      -0.14892549      -0.14947597       0.03179346
Si       3.57850381       2.08419416       3.79099274      -0.33461309       0.08719721      -5.27249015
Si       1.84138515       3.17951181      -0.21694688      -0.11234850      -0.09575154      -0.09900164
Si       3.58749677       4.24516023       0.54447751      -0.11689079      -4.40575477       1.47121638
Si       3.54121026       4.27910652       2.81147667      -0.03256170       0.07771080       0.17972666
Si       5.51746598       5.33368088       3.62174453       0.10809132       0.08036317       0.01863862
Si       3.73054417      -0.24176329      -0.25746672      -0.12520005      -0.10104671      -0.09455305
Si       5.50617356       0.78448883       0.64373294      -2.58342573       1.47265234       1.20877124
Si       5.50758307       0.81358168       2.90956203       0.04659063      -0.08635553       0.07405143
Si       7.44313979       1.82827651       3.52673803       0.02353667       0.06093104      -0.03894668
Si       5.58902435       2.98431792      -0.15159370      -0.04830108       0.11258143      -0.05992548
Si       7.41895836       4.11362985       0.42771546       0.00703787      -0.01173396       0.09563306
Si       7.51163907       4.16684050       2.84118350       0.01214701      -0.00824818      -0.00484286
Si       9.20948237       5.27292829       3.62576980      -0.07446673       0.05954893      -0.03866760
Bi      -0.00745248      -0.05797997      -0.06560089      -3.76854203      -1.26592078      -0.51842350
15
Lattice="7.613231729984494 -0.10167473534696699 -0.11126188011105251 3.75701958468441 6.514797348653385 -0.13373484623663742 3.7187838543317433 2.112516698215225 6.228977208347524" Properties=species:S:1:pos:R:3:force:R:3 config_type=Bi_vac virial="19.35118756067822 -0.9630404432144619 -0.01483130860576587 -0.9630404432144619 6.301676875643764 4.1186209734831625 -0.01483130860576587 4.1186209734831625 11.772972475331855" energy=-3.448981230000001 pbc="T T T"
Si       1.79786284       0.85879098       0.74163396       3.96971219       2.01895813       1.61970903
Si       1.71996957       1.06498443       2.92964902       0.17404450       0.13716596       0.06877482
Si       3.66669141       1.95502140       3.80555947       0.15571626      -0.11346707      -2.58146766
Si       1.86434183       3.15641957      -0.25918584       0.41518501       0.60876727      -0.06856013
Si       3.60499837       4.21901577       2.96332663      -0.03699905       0.31757192      -0.48170730
Si       5.54247670       5.35667000       3.63182386      -0.09986630      -0.25623737       0.17890698
Si       3.70204411      -0.18977762      -0.18956391      -0.01913330       0.02120257      -0.01691699
Si       5.55007668       0.88100954       0.54472896      -3.96280366       2.41178306       1.41479287
Si       5.64278243       0.86894721       3.03289888      -0.11947876       0.07687129       0.05113181
Si       7.36301331       2.05525048       3.69239547      -0.02339083       0.07706521      -0.05360783
Si       5.56950564       3.17185297      -0.05954565      -0.36547055       0.45485596       0.09028734
Si       7.54901426       4.20912169       0.42442914      -0.05279826      -0.29205132       0.02161416
Si       7.52026828       4.18582457       2.93489676       0.01757704       0.08432004      -0.04116646
Si       9.36380588       5.13686741       3.59446159       0.11365887      -0.21137562       0.13354941
Bi      -0.15663559      -0.14830069       0.02493206      -0.16595315      -5.33543005      -0.33534004
15
Lattice="7.566539660859691 -0.1327228800114133 -0.1974243340468277 3.7759231559047084 6.603016480174795 -0.1861461419380934 3.7820646448067823 2.1114109877769596 6.224230479055265" Properties=species:S:1:pos:R:3:force:R:3 config_type=Bi_vac virial="8.095252180010334 -4.2675297407593025 -3.4252838337288463 -4.2675297407593025 11.370750995929974 -0.6208735861901857 -3.4252838337288463 -0.6208735861901857 12.718558281827086" energy=-3.7674619100000086 pbc="T T T"
Si       1.75909670       0.88577246       3.09619930      -0.42712506      -0.24657240      -0.66786070
Si       3.66908306       2.08994914       3.78188557       0.08692686      -0.01641186      -3.63647027
Si       1.74914562       3.25912796      -0.24999229      -0.40097078      -0.74630893       0.02025594
Si       3.61941464       4.20483022       0.49878320      -0.04660971      -2.76749901       0.89306573
Si       3.64983148       4.18236722       2.89482973      -0.04223825       0.11290833       0.06707896
Si       5.54833046       5.40096033       3.62835297       0.21807012       0.27783125       0.16997393
Si       3.63401830      -0.24622007      -0.25990766      -0.71662823       0.09169399       0.06380085
Si       5.51176488       0.95930507       0.46427568      -3.34911981       1.94562726       1.37435245
Si       5.51186845       0.92733018       2.91000362      -0.01639085      -0.03781943       0.02337544
Si       7.45904716       1.92402414       3.56734613       0.35051425       0.03473802       0.17448315
Si       5.53232226       3.09474278      -0.25176527      -0.02932413       0.06834737      -0.07585290
Si       7.52272786       4.27854996       0.42491857       0.30359566       0.16160877       0.00585770
Si       7.46302535       4.20246566       2.71747047      -0.12062230      -0.04760165      -0.05690150
Si       9.22139812       5.23620474       3.52589973      -0.04514547      -0.05444341      -0.00685591
Bi      -0.16292347      -0.09626097      -0.06132908       4.23506768       1.22390170       1.65169715
15
Lattice="7.6368405434500595 -0.12745517979359566 -0.16137980621604917 3.764598361430999 6.582925124692299 -0.1717716124839284 3.7720090139597375 2.054453013452087 6.194317286681156" Properties=species:S:1:pos:R:3:force:R:3 config_type=Bi_vac virial="16.045944681871386 1.3260060287796893 1.1971481912169426 1.3260060287796893 14.779473669458632 -1.3485903110524697 1.1971481912169426 -1.3485903110524697 16.630765928047722" energy=-2.774356009999991 pbc="T T T"
Si       1.92087234       0.94787704       0.59184966       3.98312308       2.32267410       1.58936647
Si       1.81975868       0.87926565       3.03567710       0.17488851       0.04930110       0.40639707
Si       3.70836856       1.99464438       3.78424756      -0.27162714       0.34916533      -5.57614815
Si       1.88224336       3.27290084      -0.29440812       0.04770007       0.25861022      -0.06981640
Si       3.78166748       4.24956883       0.46910147      -0.01456234      -4.62426420       1.77299793
Si       5.59905924       5.32638595       3.60954110      -0.23683480      -0.21982775      -0.19307491
Si       3.65012994      -0.18699386      -0.29358361       0.08752131      -0.09776113      -0.05335950
Si       5.58679676       0.89071591       0.57795463      -2.37308391       1.40658525       1.05427985
Si       5.55376868       0.81195582       2.94281105      -0.02898933      -0.01853151       0.42007425
Si       7.57084925       1.96701784       3.51391890       0.03832300       0.07577257      -0.10257279
Si       5.71966499       3.08014583      -0.16529444      -0.09488192       0.46440649      -0.04912396
Si       7.49521212       4.23532044       0.37633198       0.01073437      -0.06174776       0.09865582
Si       7.42887001       4.25926989       2.76699304      -0.01964434       0.20521843       0.13585479
Si       9.27197219       5.28381714       3.56788337       0.25278159      -0.28895275      -0.24258113
Bi      -0.04500215      -0.10128389      -0.08878909      -1.55544815       0.17935162       0.80905065
15
Lattice="7.651733100807603 -0.11437308918229598 -0.1673485834477196 3.7899958340064583 6.510233250512743 -0.11833634737450668 3.7130151461588605 2.085331576960859 6.194304511465232" Properties=species:S:1:pos:R:3:force:R:3 config_type=Bi_vac virial="12.92839109107123 0.44732436369015716 -0.3275705082663105 0.44732436369015716 17.077639808167838 -1.2312213350660621 -0.3275705082663105 -1.2312213350660621 14.80464135565111" energy=-3.1972671200000065 pbc="T T T"
Si       1.92608495       0.93400163       0.71944338       2.24567040       1.25498145       0.99789051
Si       1.77995390       0.89012544       2.91235522       0.30242499       0.13511022       0.43468074
Si       3.60485685       2.08452975       3.76494165       0.22605834       0.13918571      -4.70628285
Si       1.88234162       3.14198233      -0.19222123      -0.03214474      -0.07247533       0.00947914
Si       3.63419248       4.19717411       0.51705919       0.05434511      -4.96554187       1.50936680
Si       3.52785563       4.27276301       2.87241291       0.00871314      -0.14741411       0.57677866
Si       5.41461081       5.19884280       3.63098391       0.03650580      -0.02599173      -0.12988018
Si       3.77163624      -0.21117305      -0.20721600       0.29868213      -0.14821241      -0.14738184