2
Lattice="10.0 0.0 0.0 0.0 5.0 0.0 0.0 0.0 5.0" Properties=species:S:1:pos:R:3:force:R:3 config_type=Bi_Si_dimer energy=359.4941345126663 pbc="T T T"
Si       0.00000000       0.00000000       0.00000000   -1739.11184978       0.00000000       0.00000000
Bi       0.81578947       0.00000000       0.00000000    1739.11184978      -0.00000000      -0.00000000
2
Lattice="10.0 0.0 0.0 0.0 5.0 0.0 0.0 0.0 5.0" Properties=species:S:1:pos:R:3:force:R:3 config_type=Bi_Si_dimer energy=279.16575990930824 pbc="T T T"
Si       0.00000000       0.00000000       0.00000000   -1329.77439958       0.00000000       0.00000000
Bi       0.86842105       0.00000000       0.00000000    1329.77439958      -0.00000000      -0.00000000
2
Lattice="10.0 0.0 0.0 0.0 5.0 0.0 0.0 0.0 5.0" Properties=species:S:1:pos:R:3:force:R:3 config_type=Bi_Si_dimer energy=217.89693489774507 pbc="T T T"
Si       0.00000000       0.00000000       0.00000000   -1012.74913590       0.00000000       0.00000000
Bi       0.92105263       0.00000000       0.00000000    1012.74913590      -0.00000000      -0.00000000
2
Lattice="10.0 0.0 0.0 0.0 5.0 0.0 0.0 0.0 5.0" Properties=species:S:1:pos:R:3:force:R:3 config_type=Bi_Si_dimer energy=171.2207366595649 pbc="T T T"
Si       0.00000000       0.00000000       0.00000000    -772.49236775       0.00000000       0.00000000
Bi       0.97368421       0.00000000       0.00000000     772.49236775      -0.00000000      -0.00000000
2
Lattice="10.0 0.0 0.0 0.0 5.0 0.0 0.0 0.0 5.0" Properties=species:S:1:pos:R:3:force:R:3 config_type=Bi_Si_dimer energy=135.5091446726463 pbc="T T T"
Si       0.00000000       0.00000000       0.00000000    -593.11222008       0.00000000       0.00000000
Bi       1.02631579       0.00000000       0.00000000     593.11222008      -0.00000000      -0.00000000
2
Lattice="10.0 0.0 0.0 0.0 5.0 0.0 0.0 0.0 5.0" Properties=species:S:1:pos:R:3:force:R:3 config_type=Bi_Si_dimer energy=108.03722714540717 pbc="T T T"
Si       0.00000000       0.00000000       0.00000000    -457.74704559       0.00000000       0.00000000
Bi       1.07894737       0.00000000       0.00000000     457.74704559      -0.00000000      -0.00000000
2
Lattice="10.0 0.0 0.0 0.0 5.0 0.0 0.0 0.0 5.0" Properties=species:S:1:pos:R:3:force:R:3 config_type=Bi_Si_dimer energy=86.634563253354 pbc="T T T"
Si       0.00000000       0.00000000       0.00000000    -360.29100382       0.00000000       0.00000000
Bi       1.13157895       0.00000000       0.00000000     360.29100382      -0.00000000      -0.00000000
2
Lattice="10.0 0.0 0.0 0.0 5.0 0.0 0.0 0.0 5.0" Properties=species:S:1:pos:R:3:force:R:3 config_type=Bi_Si_dimer energy=69.72706318222195 pbc="T T T"
Si       0.00000000       0.00000000       0.00000000    -285.74141987       0.00000000       0.00000000
Bi       1.18421052       0.00000000       0.00000000     285.74141987      -0.00000000      -0.00000000
2
Lattice="10.0 0.0 0.0 0.0 5.0 0.0 0.0 0.0 5.0" Properties=species:S:1:pos:R:3:force:R:3 config_type=Bi_Si_dimer energy=56.211524098257 pbc="T T T"
Si       0.00000000       0.00000000       0.00000000    -230.16232048       0.00000000       0.00000000
Bi       1.23684210       0.00000000       0.00000000     230.16232048      -0.00000000      -0.00000000
2
Lattice="10.0 0.0 0.0 0.0 5.0 0.0 0.0 0.0 5.0" Properties=species:S:1:pos:R:3:force:R:3 config_type=Bi_Si_dimer energy=45.28950468611131 pbc="T T T"
Si       0.00000000       0.00000000       0.00000000    -186.84764733       0.00000000       0.00000000
Bi       1.28947368       0.00000000       0.00000000     186.84764733      -0.00000000      -0.00000000
2
Lattice="10.0 0.0 0.0 0.0 5.0 0.0 0.0 0.0 5.0" Properties=species:S:1:pos:R:3:force:R:3 config_type=Bi_Si_dimer energy=36.35975410881392 pbc="T T T"
Si       0.00000000       0.00000000       0.00000000    -153.65437474       0.00000000       0.00000000
Bi       1.34210526       0.00000000       0.00000000     153.65437474      -0.00000000      -0.00000000
2
Lattice="10.0 0.0 0.0 0.0 5.0 0.0 0.0 0.0 5.0" Properties=species:S:1:pos:R:3:force:R:3 config_type=Bi_Si_dimer energy=29.001462720112766 pbc="T T T"
Si       0.00000000       0.00000000       0.00000000    -127.03914047       0.00000000       0.00000000
Bi       1.39473684       0.00000000       0.00000000     127.03914047      -0.00000000      -0.00000000
2
Lattice="10.0 0.0 0.0 0.0 5.0 0.0 0.0 0.0 5.0" Properties=species:S:1:pos:R:3:force:R:3 config_type=Bi_Si_dimer energy=22.890952907294462 pbc="T T T"
Si       0.00000000       0.00000000       0.00000000    -105.80141195       0.00000000       0.00000000
Bi       1.44736842       0.00000000       0.00000000     105.80141195      -0.00000000      -0.00000000
2
Lattice="10.0 0.0 0.0 0.0 5.0 0.0 0.0 0.0 5.0" Properties=species:S:1:pos:R:3:force:R:3 config_type=Bi_Si_dimer energy=17.798281439999997 pbc="T T T"
Si       0.00000000       0.00000000       0.00000000     -88.34868748       0.00000000       0.00000000
Bi       1.50000000       0.00000000       0.00000000      88.34868748      -0.00000000      -0.00000000
2
Lattice="30.0 0.0 0.0 0.0 30.0 0.0 0.0 0.0 30.0" Properties=species:S:1:pos:R:3:force:R:3 config_type=Bi_Si_dimer energy=4.57686625 pbc="T T T"
Si       0.00000000       0.00000000       0.00000000     -42.24225578       0.00000000       0.00000000
Bi       1.68965517       0.00000000       0.00000000      42.24225578       0.00000000       0.00000000
2
Lattice="30.0 0.0 0.0 0.0 30.0 0.0 0.0 0.0 30.0" Properties=species:S:1:pos:R:3:force:R:3 config_type=Bi_Si_dimer energy=0.04193592 pbc="T T T"
Si       0.00000000       0.00000000       0.00000000     -24.75747237       0.00000000       0.00000000
Bi       1.82758621       0.00000000       0.00000000      24.75747237       0.00000000       0.00000000
2
Lattice="30.0 0.0 0.0 0.0 30.0 0.0 0.0 0.0 30.0" Properties=species:S:1:pos:R:3:force:R:3 config_type=Bi_Si_dimer energy=-2.54464329 pbc="T T T"
Si       0.00000000       0.00000000       0.00000000     -13.62124416       0.00000000       0.00000000
Bi       1.96551724       0.00000000       0.00000000      13.62124416       0.00000000       0.00000000
2
Lattice="30.0 0.0 0.0 0.0 30.0 0.0 0.0 0.0 30.0" Properties=species:S:1:pos:R:3:force:R:3 config_type=Bi_Si_dimer energy=-3.9076283199999997 pbc="T T T"
Si       0.00000000       0.00000000       0.00000000      -6.69480951       0.00000000       0.00000000
Bi       2.10344828       0.00000000       0.00000000       6.69480951      -0.00000000       0.00000000
2
Lattice="30.0 0.0 0.0 0.0 30.0 0.0 0.0 0.0 30.0" Properties=species:S:1:pos:R:3:force:R:3 config_type=Bi_Si_dimer energy=-4.54851425 pbc="T T T"
Si       0.00000000       0.00000000       0.00000000      -3.16994854       0.00000000       0.00000000
Bi       2.24137931       0.00000000       0.00000000       3.16994854      -0.00000000      -0.00000000
2
Lattice="30.0 0.0 0.0 0.0 30.0 0.0 0.0 0.0 30.0" Properties=species:S:1:pos:R:3:force:R:3 config_type=Bi_Si_dimer energy=-4.84449452 pbc="T T T"
Si       0.00000000       0.00000000       0.00000000      -1.25827737       0.00000000       0.00000000
Bi       2.37931034       0.00000000       0.00000000       1.25827737      -0.00000000      -0.00000000
2
Lattice="30.0 0.0 0.0 0.0 30.0 0.0 0.0 0.0 30.0" Properties=species:S:1:pos:R:3:force:R:3 config_type=Bi_Si_dimer energy=-4.91541947 pbc="T T T"
Si       0.00000000       0.00000000       0.00000000       0.27201039       0.00000000       0.00000000
Bi       2.51724138       0.00000000       0.00000000      -0.27201039      -0.00000000      -0.00000000
2
Lattice="30.0 0.0 0.0 0.0 30.0 0.0 0.0 0.0 30.0" Properties=species:S:1:pos:R:3:force:R:3 config_type=Bi_Si_dimer energy=-4.7871201999999995 pbc="T T T"
Si       0.00000000       0.00000000       0.00000000       1.48136328       0.00000000       0.00000000
Bi       2.65517241       0.00000000       0.00000000      -1.48136328       0.00000000       0.00000000
2
Lattice="30.0 0.0 0.0 0.0 30.0 0.0 0.0 0.0 30.0" Properties=species:S:1:pos:R:3:force:R:3 config_type=Bi_Si_dimer energy=-4.53044443 pbc="T T T"
Si       0.00000000       0.00000000       0.00000000       2.16987386       0.00000000       0.00000000
Bi       2.79310345       0.00000000       0.00000000      -2.16987386      -0.00000000      -0.00000000
2
Lattice="30.0 0.0 0.0 0.0 30.0 0.0 0.0 0.0 30.0" Properties=species:S:1:pos:R:3:force:R:3 config_type=Bi_Si_dimer energy=-4.20408502 pbc="T T T"
Si       0.00000000       0.00000000       0.00000000       2.51618853       0.00000000       0.00000000
Bi       2.93103448       0.00000000       0.00000000      -2.51618853       0.00000000      -0.00000000
2
Lattice="10.0 0.0 0.0 0.0 10.0 0.0 0.0 0.0 10.0" Properties=species:S:1:pos:R:3:force:R:3 config_type=Bi_Si_dimer energy=-3.84798841 pbc="T T T"
Si       0.00000000       0.00000000       0.00000000       2.63862287       0.00000000       0.00000000
Bi       3.06896552       0.00000000       0.00000000      -2.63862287      -0.00000000      -0.00000000
2
Lattice="10.0 0.0 0.0 0.0 10.0 0.0 0.0 0.0 10.0" Properties=species:S:1:pos:R:3:force:R:3 config_type=Bi_Si_dimer energy=-3.4839862 pbc="T T T"
Si       0.00000000       0.00000000       0.00000000       2.62062153      -0.00000000      -0.00000000
Bi       3.20689655       0.00000000       0.00000000      -2.62062153       0.00000000       0.00000000
2
Lattice="10.0 0.0 0.0 0.0 10.0 0.0 0.0 0.0 10.0" Properties=species:S:1:pos:R:3:force:R:3 config_type=Bi_Si_dimer energy=-3.12901343 pbc="T T T"
Si       0.00000000       0.00000000       0.00000000       2.51515839      -0.00000000      -0.00000000
Bi       3.34482759       0.00000000       0.00000000      -2.51515839       0.00000000       0.00000000
2
Lattice="10.0 0.0 0.0 0.0 10.0 0.0 0.0 0.0 10.0" Properties=species:S:1:pos:R:3:force:R:3 config_type=Bi_Si_dimer energy=-2.7924759 pbc="T T T"
Si       0.00000000       0.00000000       0.00000000       2.35827014       0.00000000       0.00000000
Bi       3.48275862       0.00000000       0.00000000      -2.35827014      -0.00000000      -0.00000000
2
Lattice="10.0 0.0 0.0 0.0 10.0 0.0 0.0 0.0 10.0" Properties=species:S:1:pos:R:3:force:R:3 config_type=Bi_Si_dimer energy=-2.479691 pbc="T T T"
Si       0.00000000       0.00000000       0.00000000       2.17408698      -0.00000000       0.00000000
Bi       3.62068966       0.00000000       0.00000000      -2.17408698       0.00000000      -0.00000000
2
Lattice="10.0 0.0 0.0 0.0 10.0 0.0 0.0 0.0 10.0" Properties=species:S:1:pos:R:3:force:R:3 config_type=Bi_Si_dimer energy=-2.19329541 pbc="T T T"
Si       0.00000000       0.00000000       0.00000000       1.97791197       0.00000000      -0.00000000
Bi       3.75862069       0.00000000       0.00000000      -1.97791197       0.00000000       0.00000000
2
Lattice="10.0 0.0 0.0 0.0 10.0 0.0 0.0 0.0 10.0" Properties=species:S:1:pos:R:3:force:R:3 config_type=Bi_Si_dimer energy=-2.19329541 pbc="T T T"
Si       0.00000000       0.00000000       0.00000000       1.97791197       0.00000000      -0.00000000
Bi       3.75862069       0.00000000       0.00000000      -1.97791197       0.00000000       0.00000000
2
Lattice="10.0 0.0 0.0 0.0 10.0 0.0 0.0 0.0 10.0" Properties=species:S:1:pos:R:3:force:R:3 config_type=Bi_Si_dimer energy=-1.93420814 pbc="T T T"
Si       0.00000000       0.00000000       0.00000000       1.77929534       0.00000000      -0.00000000
Bi       3.89655172       0.00000000       0.00000000      -1.77929534      -0.00000000       0.00000000
2
Lattice="10.0 0.0 0.0 0.0 10.0 0.0 0.0 0.0 10.0" Properties=species:S:1:pos:R:3:force:R:3 config_type=Bi_Si_dimer energy=-1.70233337 pbc="T T T"
Si       0.00000000       0.00000000       0.00000000       1.58382929       0.00000000      -0.00000000
Bi       4.03448276       0.00000000       0.00000000      -1.58382929      -0.00000000       0.00000000
2
Lattice="10.0 0.0 0.0 0.0 10.0 0.0 0.0 0.0 10.0" Properties=species:S:1:pos:R:3:force:R:3 config_type=Bi_Si_dimer energy=-1.4970817 pbc="T T T"
Si       0.00000000       0.00000000       0.00000000       1.39339756       0.00000000      -0.00000000
Bi       4.17241379       0.00000000       0.00000000      -1.39339756      -0.00000000       0.00000000
2
Lattice="10.0 0.0 0.0 0.0 10.0 0.0 0.0 0.0 10.0" Properties=species:S:1:pos:R:3:force:R:3 config_type=Bi_Si_dimer energy=-1.31779753 pbc="T T T"
Si       0.00000000       0.00000000       0.00000000       1.20685704       0.00000000      -0.00000000
Bi       4.31034483       0.00000000       0.00000000      -1.20685704      -0.00000000       0.00000000
2
Lattice="10.0 0.0 0.0 0.0 10.0 0.0 0.0 0.0 10.0" Properties=species:S:1:pos:R:3:force:R:3 config_type=Bi_Si_dimer energy=-1.1641735 pbc="T T T"
Si       0.00000000       0.00000000       0.00000000       1.02025910      -0.00000000      -0.00000000
Bi       4.44827586       0.00000000       0.00000000      -1.02025910       0.00000000       0.00000000
2
Lattice="10.0 0.0 0.0 0.0 10.0 0.0 0.0 0.0 10.0" Properties=species:S:1:pos:R:3:force:R:3 config_type=Bi_Si_dimer energy=-1.0367902500000001 pbc="T T T"
Si       0.00000000       0.00000000       0.00000000       0.82435726       0.00000000      -0.00000000
Bi       4.58620690       0.00000000       0.00000000      -0.82435726      -0.00000000       0.00000000
2
Lattice="10.0 0.0 0.0 0.0 10.0 0.0 0.0 0.0 10.0" Properties=species:S:1:pos:R:3:force:R:3 config_type=Bi_Si_dimer energy=-0.9379678499999999 pbc="T T T"
Si       0.00000000       0.00000000       0.00000000       0.60208894       0.00000000       0.00000000
Bi       4.72413793       0.00000000       0.00000000      -0.60208894      -0.00000000      -0.00000000
2
Lattice="10.0 0.0 0.0 0.0 10.0 0.0 0.0 0.0 10.0" Properties=species:S:1:pos:R:3:force:R:3 config_type=Bi_Si_dimer energy=-0.8729646499999999 pbc="T T T"
Si       0.00000000       0.00000000       0.00000000       0.32933532       0.00000000      -0.00000000
Bi       4.86206897       0.00000000       0.00000000      -0.32933532      -0.00000000       0.00000000
2
Lattice="10.0 0.0 0.0 0.0 10.0 0.0 0.0 0.0 10.0" Properties=species:S:1:pos:R:3:force:R:3 config_type=Bi_Si_dimer energy=-0.8498053299999999 pbc="T T T"
Si       0.00000000       0.00000000       0.00000000       0.00000000       0.00000000      -0.00000000
Bi       5.00000000       0.00000000       0.00000000      -0.00000000      -0.00000000       0.00000000
2
Lattice="10.0 0.0 0.0 0.0 10.0 0.0 0.0 0.0 10.0" Properties=species:S:1:pos:R:3:force:R:3 config_type=Bi_Si_dimer energy=-0.8499297899999999 pbc="T T T"
Si       0.00000000       0.00000000       0.00000000       0.02482782      -0.00000000       0.00000000
Bi       4.99000000       0.00000000       0.00000000      -0.02482782       0.00000000      -0.00000000
