17
Lattice="7.8174270632 0.0 0.0 3.8553592425 6.6663899445 0.0 3.8859957015 2.2423426806 6.2843497413" Properties=species:S:1:pos:R:3:force:R:3 config_type=Bi_double virial="45.84314050947225 -19.869943031324517 -19.320594787455022 -19.869943031324517 57.449592074137065 -7.434583345070913 -19.320594787455022 -7.434583345070913 67.27927077826315" energy=9.37661021000001 pbc="T T T"
Si      -0.08659670       0.10526624       0.03754270      -3.23833614      -1.66971607      -0.96492958
Si       1.90283385       1.09246415       3.12824290      -0.12249704       0.20831711       4.80003924
Si       3.81536497       2.22397065       3.97257490      -0.26674233      -0.07984936      -0.06560800
Si       1.96098112       3.38435299      -0.00374663      -0.56541573       5.25979576      -0.02690439
Si       3.93097658       4.40751133       0.84107093       0.07436825       0.03276026       0.02494249
Si       3.83118647       4.46264675       3.11230968      -0.33221574       0.26259040      -0.30080908
Si       5.73650637       5.51079747       3.93966440      -3.75550782       6.31222011      -2.44163004
Si       3.89667744      -0.02625147      -0.11072413       6.06317758      -5.20154334       1.63497710
Si       5.76575760       1.08619393       0.82454338       0.09685561       0.02236494      -0.04050384
Si       5.84820081       1.17848898       3.18972714      -0.12249623      -0.88138465      -0.68964507
Si       7.91291720       2.24229964       3.89125432       9.14004815     -10.34644034      -5.65084108
Si       5.86891690       3.32448149       0.12984303       0.00956857       0.04306202       0.02796287
Si       7.81675908       4.50938732       0.75768396      -0.11246886      -0.19656790       0.09566116
Si       7.76410780       4.42828817       3.08764059       6.51549827       4.41997896      -8.85490472
Si       9.70998909       5.54181493       4.00202821       0.11673184      -0.19792636       0.01689057
Bi       1.99370068       1.11013337       0.77667803      -3.05648729      -1.04613874       7.08277734
Bi       6.64097687       3.62411453       4.69516133     -10.44408108       3.05847720       5.35252502
17
Lattice="7.7924619578 0.0 0.0 3.8962883532 6.6949056059 0.0 3.860200594 2.2322655307 6.288132145" Properties=species:S:1:pos:R:3:force:R:3 config_type=Bi_double virial="49.97034233312983 -12.276733668122995 -10.83845856973246 -12.276733668122995 52.23015440011212 -3.047849224315852 -10.83845856973246 -3.047849224315852 46.29197478834201" energy=5.670810329999995 pbc="T T T"
Si      -0.12114329       0.00731941       0.04598219      -1.10680231      -1.81911535       0.67269060
Si       1.99601849       1.05870873       3.04595965       0.08278950      -1.39772629       6.02108308
Si       3.89035702       2.26214631       3.89473372       7.53477449      -5.56931606      -2.58161980
Si       2.03384192       3.35144613      -0.05546170       0.01348276       3.29032903      -1.15521526
Si       3.90322212       4.47235116       0.75980215      -0.03494948      -0.09667398      -0.00391890
Si       3.73596756       4.41467589       3.10617883       5.88046905       3.03847583      -5.19804435
Si       5.75310678       5.57678397       3.82005907      -0.03631277      -0.07633056       0.03530340
Si       3.78612092       0.01176542      -0.18564810       4.02522124      -2.91840790      -2.11513840
Si       5.86320309       1.15500015       0.74645026      -0.15788429       0.03657238       1.99584493
Si       5.80036911       1.02256444       3.07037118       0.12437042      -0.72827810       0.06380937
Si       7.80638264       2.25602687       3.91132834      -1.70870020      -0.69184052      -0.52751732
Si       5.80211697       3.30623398       0.01700268      -0.40202638       1.09554689       1.13254463
Si       7.80129811       4.56283592       0.71302082       0.13532299      -0.13828791      -0.03392071
Si       7.83552386       4.47566905       3.13295101      -1.18487271       0.74222584      -0.62002180
Si       9.57924196       5.63050835       3.89424647      -2.29976811       7.92972585      -1.94178933
Bi       2.00520594       1.07724654       0.79646209      -2.37890797       0.73880907      -2.46394444
Bi      -1.66408636      -3.17305199       4.45188318      -8.48620623      -3.43570820       6.71985429
17
Lattice="7.7777814228 0.0 0.0 3.8793113141 6.7452054717 0.0 3.8589048693 2.2261294592 6.3921216" Properties=species:S:1:pos:R:3:force:R:3 config_type=Bi_double virial="43.63042572822991 -6.806274572093794 -4.011006661887793 -6.806274572093794 58.40402522249211 -1.6195967315223512 -4.011006661887793 -1.6195967315223512 37.277528378359776" energy=4.027875320000007 pbc="T T T"
Si       0.02104224       0.00592384       0.01896136      -3.34928393      -0.62571491      -0.48372194
Si       1.90954363       1.12743608       3.17701201      -1.68227460       0.75064335       3.17029964
Si       3.84829648       2.20455511       4.14001901      -0.98936914      11.15369407      -1.40243180
Si       1.97765425       3.38793111       0.02681196      -0.40148816       3.02355817      -0.73113217
Si       3.91521942       4.48490687       0.79513608      -0.03948987      -0.04557640       1.61670044
Si       3.84349169       4.52389491       3.15571980       0.28025992       0.32020713      -0.29267763
Si       5.70637371       5.54712453       3.98066788      -1.96822042      -1.37686003      -0.53949992
Si       3.82647333       0.07311004      -0.09605493       4.67921132      -2.60360395      -2.20497523
Si       5.80901875       1.09522063       0.77608129      -0.00258802       0.11407033       0.04142146
Si       5.80347982       1.11528482       3.12649809       2.58236860       1.36209355      -2.54054763
Si       7.74924374       2.32217153       4.05165651       0.00337828       0.05795639       0.19334956
Si       5.84104005       3.24237792       0.12003405       0.43477340      -0.75044223       0.66523503
Si       7.81725762       4.61992421       0.84032664       0.07095153       0.09701679       0.02848526
Si       7.71556965       4.57617832       3.21862538      -0.10361592      -1.67137919      -1.02890900
Si       9.62590134       5.60142670       4.09324675       5.27446044      -4.42452587      -1.04562701
Bi       1.99047636       1.10267939       0.81873469      -1.31886811       1.14529014       0.37452356
Bi      -7.67318817      -2.08256329      -1.85469730      -3.47020533      -6.52642736       4.17950737
17
Lattice="7.8079001471 0.0 0.0 3.9081853795 6.7344079966 0.0 3.8675429152 2.250891384 6.2893489089" Properties=species:S:1:pos:R:3:force:R:3 config_type=Bi_double virial="54.79926272645068 2.5829208342931596 -2.003606903676249 2.5829208342931596 52.436989695984074 -1.385035913190264 -2.003606903676249 -1.385035913190264 27.494750042287325" energy=3.6387464000000023 pbc="T T T"
Si      -0.02253804      -0.00113706      -0.05723384      -2.92972780      -1.73011461      -0.57077429
Si       1.93709754       1.14449700       3.23132205       0.26562921       0.15417406       3.50168052
Si       3.80605993       2.20631256       4.06527372      -8.63637684      -5.17026533       1.16476477
Si       1.99846791       3.39515631      -0.04137827       0.09945080       3.55082147      -0.71023680
Si       3.97261557       4.46025058       0.79053428       0.14103518      -0.04645160       0.17346896
Si       3.88452563       4.44371482       3.01504376      -3.88185174       2.64314605      -3.14458287
Si       5.85772518       5.64312267       3.88330178       0.93739299       5.68002064      -0.23402074
Si       3.90316407       0.02633124      -0.13070208       3.63462690      -2.10775537      -1.20295367
Si       5.82930317       1.10779325       0.80125804       0.11348152       0.11533555       0.09611642
Si       5.90809067       1.11986216       3.17465110       1.14592206      -4.17322918      -1.87412267
Si       7.80132711       2.30855075       3.78608798       4.03549286      -1.85692132      -0.59525042
Si       5.83338971       3.40991695       0.04207738      -0.10621540       0.05284367      -0.02276316
Si       7.87053640       4.63504070       0.76497159       0.00778885      -0.13207592       0.14767229
Si       7.75176461       4.60137809       3.13316556       1.96781669       1.30645863      -0.83570814
Si       9.63642659       5.62867676       3.96526640      -0.40902754       0.02899706       0.28507552
Bi       2.00557589       1.10808043       0.82478292      -0.87117288       0.21704647       1.51963291
Bi       5.69898311      -5.64890012      -2.23691011       4.48573515       1.46796973       2.30200137
17
Lattice="7.7578319855 0.0 0.0 3.8831629059 6.6670525978 0.0 3.8753118077 2.2227616701 6.3265604503" Properties=species:S:1:pos:R:3:force:R:3 config_type=Bi_double virial="76.17201475723435 -7.887987585082257 -6.647755731899411 -7.887987585082257 21.091382026874747 14.58248368397465 -6.647755731899411 14.58248368397465 71.91586006159545" energy=9.509469269999997 pbc="T T T"
Si       0.00598606       0.03153929       0.00902982       9.85513891      -3.85749921       8.88526267
Si       2.01580929       1.06117573       3.18231251      -0.25702907      -2.57510904       2.36297496
Si       3.86719115       2.18561025       3.96257661      15.06265002      -2.61980056     -11.65878929
Si       1.96647015       3.35460604      -0.00257010       0.04470729       2.15686434      -0.69304372
Si       3.94784407       4.31534107       0.78309470       0.25165363      -0.02326401       0.05130215
Si       3.88500524       4.44790765       3.21219214       0.60646865       0.49192140      -0.43968355
Si       5.73147448       5.45587594       3.95169278      -0.14946433      -0.17390943      -0.08202164
Si       3.80952379       0.03593204      -0.13380834       2.93729195      -2.78550377      -1.91992614
Si       5.74800422       1.11533298       0.87307609      -1.55501003       2.78655901       5.99215681
Si       5.88042572       1.10258713       3.08654712       0.24661463      -0.28743290      -0.34994427
Si       7.72116061       2.13654072       3.95316418      -2.00887533      -0.28838611      -0.87341796
Si       5.84162719       3.27087922       0.12556182      -0.13239193       0.24078964       0.21432182
Si       7.81488625       4.58059407       0.80449615       0.10848268      -0.15273291       0.12058099
Si       7.86152885       4.55883821       3.07182506       0.05221597       0.24818237      -0.09634346
Si       9.68553598       5.53400963       3.97794434      -0.01363750       0.17831566      -0.06111349
Bi       2.02916574       1.00917850       0.90067267      -2.08571635       1.98816428      -1.41405082
Bi      -1.57425802      -4.17115982       5.10544925     -22.96309918       4.67284123      -0.03826506
17
Lattice="7.7970132102 0.0 0.0 3.856402097 6.7441741243 0.0 3.9093906109 2.2251478379 6.3197990578" Properties=species:S:1:pos:R:3:force:R:3 config_type=Bi_double virial="58.067238548123605 -7.417020476165308 -8.177406161261793 -7.417020476165308 72.87808486301564 -2.054259696562421 -8.177406161261793 -2.054259696562421 33.788311378130956" energy=8.554000160000001 pbc="T T T"
Si       0.10690050      -0.03850890       0.02170117      -3.99035928      -2.39530580      -1.89736215
Si       1.98953862       1.02224257       3.19849892       4.09621013     -18.35969719       5.66496364
Si       3.89166643       2.21761224       3.98391292       2.77524843      -1.01882347       1.29307778
Si       2.00598003       3.45948753       0.03924195       0.02173180       3.25983574      -1.59192440
Si       3.81939606       4.50358155       0.80739183       0.23636565       0.17534698      -0.07826244
Si       3.87281815       4.52375705       3.24939354       1.24765465       0.90767135       0.16992272
Si       5.77663034       5.59111462       3.96820631      -0.25292431       0.43205118       0.00446684
Si       3.89146650      -0.00866165      -0.03972469       2.89488866      -1.76300542      -1.52315764
Si       5.83495034       1.08692245       0.83500425       0.01847064      -0.01328097       0.01038543
Si       5.72957606       1.12017345       3.24626735      -0.14643292      -0.00018515       0.01482690
Si       7.77237137       2.22933460       3.94280907     -11.66599752      -4.29127876       6.99524418
Si       5.80021149       3.33935958       0.01882488      -0.01606783      -0.10454560      -0.03132144
Si       7.89052899       4.59414160       0.81500829      -0.31968874       0.53082951      -0.22538302
Si       7.75050384       4.40844688       3.07809663      -5.28759004       4.73922726       0.04720909
Si       9.56028190       5.63111294       3.98227817      -0.15475432       1.28158693       0.33106881
Bi       1.95521907       1.15956052       0.82570827       1.31794877      -1.86627230      -2.95751740
Bi      -2.21078160      -3.79023490       2.97842589       9.22529621      18.48584572      -6.22623689
17
Lattice="7.7009827168 0.0 0.0 3.9249759799 6.6879353147 0.0 3.8614923669 2.2246413696 6.3256579005" Properties=species:S:1:pos:R:3:force:R:3 config_type=Bi_double virial="81.86886482098625 -1.552352948717296 -0.8445355821331193 -1.552352948717296 36.43533893721444 15.442806169976167 -0.8445355821331193 15.442806169976167 50.68351130462592" energy=9.049747659999994 pbc="T T T"
Si       0.02426493       0.05516426       0.08428566      -3.70001035      -1.65960967      -2.24387926
Si       1.84639999       1.10249191       3.13925269      -0.10151851       0.03601865       5.29096427
Si       3.81681250       2.20157624       3.99298612       0.04073880       0.07348482       0.04192718
Si       2.07229575       3.40449705      -0.01566163       1.21451561      -5.35342625      -7.57921377
Si       3.85378577       4.40032546       0.83632698      11.51285570      -3.35223089      -3.44111017
Si       3.88456137       4.38259152       3.11619487       2.16712608      -0.58599587       1.33609931
Si       5.75247896       5.48794796       3.91801263      -0.35331291       0.11297259       0.02859167
Si       3.77626435      -0.04403195      -0.03505036       4.34351040      -2.64510735      -2.87176110
Si       5.61923520       1.05193301       0.90906092       0.12827854       0.92261558      -0.04773468
Si       5.78398650       1.13301103       3.19867568       0.04998078       0.26582854       0.11229159
Si       7.71136863       2.25562364       3.90414253      -0.13674030       0.12445886      -0.09918282
Si       5.71086959       3.27277004       0.02577409      -0.41268910      -0.14034440      -0.24794393
Si       7.80386029       4.44051225       0.77442979     -12.56430633      -2.91929393      -4.65204629
Si       7.84530674       4.44576600       3.13075712      -2.26836636      -0.84657779       2.14074103
Si       9.72201364       5.51927644       4.04210232       0.17432766       0.47019864       2.12935556
Bi       1.99414730       1.04701852       0.82831928      -0.91802033       2.90213617      -0.52218139
Bi       5.73710907      -1.72751204       1.46993488       0.82363063      12.59487229      10.62508279
17
Lattice="7.7950155331 0.0 0.0 3.9099181399 6.7419792168 0.0 3.9081070213 2.2341444265 6.3594633101" Properties=species:S:1:pos:R:3:force:R:3 config_type=Bi_double virial="67.2446172056614 -22.52533110048829 -10.862434146627344 -22.52533110048829 33.64942076927571 4.987002854980588 -10.862434146627344 4.987002854980588 86.4542541739932" energy=12.668448990000002 pbc="T T T"
Si      -0.08553647       0.02111003       0.03919160      -2.03476371      -1.24155964      -0.56675836
Si       1.93796728       1.14879243       3.18015053       5.14976603      -3.76265185     -11.13451847
Si       3.85131835       2.24299256       4.08853658       1.50306646       0.34768807      -0.92546498
Si       1.89922062       3.34535728      -0.09480519      -0.00213707       3.00675622      -1.11860338
Si       3.94309776       4.52695883       0.69338203       0.07550739      -0.20306382       0.04224922
Si       3.85139015       4.42029260       3.13665781      -0.05923752       0.02917906       0.05324257
Si       5.86762120       5.54902298       3.85578480       0.40325579      -0.91872551      -0.62925833
Si       3.85593149      -0.03087415      -0.10056533      -9.61779055       3.31022833      10.19608356
Si       5.79669484       1.11472590       0.79286150       0.09745821       1.14517441       1.33981655
Si       5.86154211       1.09038695       3.19765796       0.23152430      -0.03612234       0.06672930
Si       7.82531026       2.32298122       3.92652218     -16.82761178       9.93403816     -13.97413293
Si       5.98061087       3.35426437       0.19625854       0.10730344       0.02140329       0.13284274
Si       7.89339584       4.61599990       0.77167910      -0.83958268      -0.41223243       1.34947771
Si       7.80909528       4.42572279       3.07086426      -0.09350910      -0.42620462      -0.02126614
Si       9.70299988       5.63060083       3.97073469      -0.08674827      -0.01070249      -0.04842437
Bi       1.96652388       1.09931994       0.80063785      -0.59238789       0.25519433      -0.31644043
Bi       1.37997324       6.08462498      -1.31465726      22.58588697     -11.03839918      15.55442577
17
Lattice="7.8277537764 0.0 0.0 3.8674593644 6.6781552659 0.0 3.8827727375 2.2515721258 6.3367746565" Properties=species:S:1:pos:R:3:force:R:3 config_type=Bi_double virial="33.21747969435228 -11.45122539333511 -10.099869272129858 -11.45122539333511 52.41118662235538 -5.850166538241045 -10.099869272129858 -5.850166538241045 64.79475878106834" energy=5.880314349999992 pbc="T T T"
Si      -0.03979514       0.01234840      -0.03920742      -3.05644732      -1.64131997      -1.11190708
Si       1.95601413       1.14522816       3.19305929       1.34068190       0.84506809       1.61344680
Si       3.89461193       2.31014175       3.95704784       0.03417170       0.03288671       0.00661088
Si       1.90697100       3.26575511       0.04150877       2.51174532       3.52060732       0.24006114
Si       3.89995826       4.47516048       0.72100367      -0.03418163      -0.13588902      -0.08742066
Si       3.78388619       4.47183973       3.18154810      -0.18384230      -0.43443485      -0.23400121
Si       5.76806245       5.49809573       3.91946092       2.45764671      -2.67276579      -2.16168748
Si       3.81206018      -0.08834364      -0.05899305       1.68117406       2.94577375       2.01255472
Si       5.79970663       1.03509584       0.84327431       0.03875571      -0.04865659       0.14727673
Si       5.86134139       1.02964818       3.10591269      -0.43045657       0.06127451      -0.45205558
Si       7.83073343       2.25306785       3.93425515      -0.95753738       4.54124865      -2.71058741
Si       5.99221847       3.37448190       0.10375124      -0.57316743      -0.27419733       0.71313252
Si       7.82803735       4.51009551       0.77435462      -3.16345228      -1.18806506      13.65817795
Si       7.77409283       4.45082774       3.04170351       0.34770399       0.13117204      -0.47678757
Si       9.66427013       5.62747209       4.04978745      -0.54864853      -0.30849201      -0.19126235
Bi       1.93587287       1.11489070       0.77290628      -0.28129355      -1.96902547       1.08860831
Bi      -3.46444701      -6.40244561       5.10575214       0.81714762      -3.40518498     -12.05415968
17
Lattice="7.7391451749 0.0 0.0 3.9003991822 6.6844331265 0.0 3.9095112069 2.2422771988 6.328602358" Properties=species:S:1:pos:R:3:force:R:3 config_type=Bi_double virial="31.63398662678799 -15.583464883975868 -12.686980219750494 -15.583464883975868 68.01422797606499 -16.256973489565937 -12.686980219750494 -16.256973489565937 89.51992735760214" energy=12.514983430000001 pbc="T T T"
Si      -0.03920360      -0.00139420      -0.01909870      -3.01665345      -1.73724503      -0.60776629
Si       1.87987431       1.10195821       3.13229433      -0.30999773       0.27904979       5.93627160
Si       3.81998427       2.14859416       4.02832257      -0.04373618      -0.07347892      -0.08318533
Si       1.97866558       3.39601452      -0.07172342      -2.63313657      14.57455692       6.16432653
Si       3.90300660       4.48518740       0.85360844      -0.17028998      -0.00560231       0.07708009
Si       3.81953604       4.44646916       3.20858849      -0.66663340       0.40323687      -0.58770057
Si       5.83019022       5.59607649       4.05602344      -4.31681848      13.32446887      -8.61792052
Si       3.91061042       0.08495231      -0.02643451       6.44600664      -4.19648413      -0.81101358
Si       5.76497899       1.13481071       0.73672055       0.02901825       0.09789321       0.03375567
Si       5.75142395       1.13329302       3.09550642      -0.02088833      -0.18425094      -0.20549929
Si       7.78562044       2.27013401       3.77410123       1.05628496      -1.40405208      -1.22485541
Si       5.94868735       3.24217445       0.02695786       0.01328257       0.00350524      -0.01302613
Si       7.80994072       4.51183652       0.77644793      -0.00649793      -0.30029511       0.01159826
Si       7.70611556       4.51226882       3.10622921       1.89070352       0.81439926      -2.77936554
Si       9.75106130       5.53108287       3.93442512       0.06501903      -0.05740897       0.03551479
Bi       2.01484689       1.04605172       0.87122937      -5.33026748      -5.57440894      16.19121048
Bi      -5.33000120      -2.70169700       5.13038389       7.01460456     -15.96388374     -13.51942477
17
Lattice="7.7028943667 0.0 0.0 3.8916359351 6.722109215 0.0 3.8952342059 2.2574141928 6.3544093432" Properties=species:S:1:pos:R:3:force:R:3 config_type=Bi_double virial="39.535712202156965 -15.987139963778311 -11.049348903057721 -15.987139963778311 55.384482933346895 -4.6385345854503495 -11.049348903057721 -4.6385345854503495 52.910444385177584" energy=5.7099286699999965 pbc="T T T"
Si      -0.08046867      -0.02475799       0.01586181      -2.17948634      -0.78449971      -6.75314323
Si       1.91487764       1.13236158       3.19917089       0.35702602       0.20705918       3.25912466
Si       3.90162268       2.25493736       4.02239493      -0.39318817       0.08491003      -0.00166394
Si       1.99221134       3.43622492      -0.01540461       0.10532780       2.27183749      -0.69261715
Si       3.97240632       4.55369603       0.75136505       1.32426672      -3.84391251      -3.58911948
Si       3.89266802       4.45641369       3.12896954       3.12305874      -9.44362754       4.49642706
Si       5.78208665       5.61738536       3.95287639       0.76017084      -0.37442027       0.65100414
Si       3.80140093      -0.02527091      -0.04665080       4.56123037      -2.61075342      -1.80547463
Si       5.75939947       1.17167490       0.77117020      -1.56000935       2.06812753      -1.76888069
Si       5.84252181       1.02126553       3.15429965      -4.81171634       5.41720197       3.40062013
Si       7.75272040       2.26430221       3.91089960      -0.04588496       0.78195403       0.30914862
Si       5.75222144       3.32725788       0.05087540      -0.03668410      -0.07237233       0.15358764
Si       7.69000252       4.57984684       0.84359704       0.02865963      -0.18808364       0.06311204
Si       7.70042788       4.44041072       3.16694125       0.11271984      -0.04990668      -0.07188962
Si       9.58370964       5.57354518       4.03794711      -2.92680587      -1.05945212       3.21749256
Bi       1.91851523       1.04373726       0.75754367      -0.08846538       2.93033850      -0.08116372
Bi      -4.30566439       6.31300493       2.22722801       1.66978056       4.66559948      -0.78656441
17
Lattice="7.7686070347 0.0 0.0 3.880901152 6.68047363 0.0 3.9133329219 2.2234180309 6.3020546695" Properties=species:S:1:pos:R:3:force:R:3 config_type=Bi_double virial="45.57714428472878 7.430788799255687 4.367471830226948 7.430788799255687 64.79979099261033 -4.334936581871216 4.367471830226948 -4.334936581871216 49.79786844483508" energy=7.253659560000003 pbc="T T T"
Si      -0.06704553      -0.03008472       0.06779559      -3.96125301      -0.83365976      -0.61302432
Si       1.96599231       1.11358894       3.10298750      -0.05742953       0.13492891       6.53294830
Si       3.94194191       2.17619996       4.00313725      -0.52114916       0.23121543      -0.46848711
Si       2.00302512       3.36306944      -0.00478799       0.04710853       3.03805480      -1.01806038
Si       3.87953990       4.39461823       0.67001491      -1.45825384      -1.02786472       0.75384907
Si       3.88293621       4.48377134       3.09523567       0.04853394       0.15789932      -0.01511936
Si       5.77269226       5.49504267       3.86570281      -0.02174592      -0.05916505       0.01596940
Si       3.91118116      -0.00494898      -0.08106693       9.06581158       2.72058325       0.07867839
Si       5.71871388       1.08009989       0.66287773      -0.09237843      -0.19997409      -0.44532864
Si       5.84883045       1.10347364       3.25288997      -0.34460461       0.36720378      -2.88700576
Si       7.85270022       2.24928785       3.91425589       1.07052165       0.74111780      -0.90559627
Si       5.83589346       3.42403004       0.07076723      -1.95457129     -12.79085872       5.09985010
Si       7.73105447       4.49940782       0.72396523       4.74739133      -2.83640600       3.74317131
Si       7.79822699       4.50927298       3.17844595      -0.09895742       0.08097031       0.11685037
Si       9.78354540       5.56984458       3.99786660      -0.18268128      -2.12651136      -1.61259892
Bi       1.99035425       1.05613821       0.83749863      -0.91860754       3.62819048      -0.83121192
Bi       2.20951567      -1.34407808      -0.60571825      -5.36773503       8.77427563      -7.54488426
17
Lattice="7.7555368295 0.0 0.0 3.9177190912 6.7366813374 0.0 3.8952270587 2.2260068168 6.3760270246" Properties=species:S:1:pos:R:3:force:R:3 config_type=Bi_double virial="34.32132586636729 -12.1615945855406 -11.38936166544224 -12.1615945855406 42.2920002075229 -1.4597541387014425 -11.38936166544224 -1.4597541387014425 59.536264079138896" energy=4.095089040000005 pbc="T T T"
Si      -0.00043662       0.08009612       0.01941176      -2.31756044      -1.22218700      -1.15708850
Si       1.83628709       1.09288191       3.16810736      -0.40135485      -0.20919412       7.19502657
Si       3.78282237       2.24805936       4.05639900      -1.70602200      -0.81977328       2.30460163
Si       1.95730942       3.48241513      -0.04585816       0.03631368       1.80255363      -0.58627368
Si       3.87790026       4.48380667       0.82752731      -3.97235281       3.53910622      -3.09758207
Si       3.87729846       4.46378800       3.19442233      -5.00194886       5.39300735       4.47092221
Si       5.72743178       5.63320788       3.95173897      -0.15212390       0.51326503       0.45636948
Si       3.95679526      -0.00410907      -0.00108788       2.68217859      -1.55289855      -0.99080729
Si       5.70437607       1.05054217       0.80553066       0.54866929      -2.70630999      -1.87722136
Si       5.69120195       1.05278571       3.24579254       0.79156807      -3.98411685       2.05779993
Si       7.80681602       2.28372792       3.94277215       0.38181097       0.04039484       0.36665889
Si       5.94888403       3.25405183       0.04337522       3.58391033       0.14122389      -7.61019006
Si       7.81372071       4.54361430       0.71373383       0.47613737       0.30113930      -0.50295560
Si       7.75390532       4.52502123       3.23826742       0.39425149       0.27204722       0.10920503
Si       9.68879869       5.63528755       4.03946088      -0.31318759       0.10897254       0.08412362
Bi       2.03215027       1.14220395       0.94215591      -0.01666817       1.08948733      -4.44238392
Bi       1.32926812      -3.60600199       2.13409966       4.98637883      -2.70671753       3.21979514
17
Lattice="7.7503796771 0.0 0.0 3.8937187094 6.7677207676 0.0 3.9002207073 2.2331574144 6.3153568037" Properties=species:S:1:pos:R:3:force:R:3 config_type=Bi_double virial="70.56001835720724 -8.346886155946935 -8.899803645695563 -8.346886155946935 28.004421580950222 19.011584913291195 -8.899803645695563 19.011584913291195 73.00981424104299" energy=9.488183639999988 pbc="T T T"
Si       0.02961314      -0.02442402       0.02494931       7.52834527      -4.83682650       4.13294658
Si       1.93312343       1.16240543       3.14654819      -0.16400467      -1.04957875       2.32935149
Si       3.82881008       2.26491188       4.06224156       7.24427637      -1.45153401      -5.67603479
Si       2.02164856       3.39675643      -0.03940934       0.04613408       2.53831523      -0.91280842
Si       3.97019016       4.48315113       0.83119523       0.23126075       0.00378536      -0.00078084
Si       3.84327685       4.50512938       3.25216209       0.28861435       0.23322534      -0.29087617
Si       5.83370934       5.60705605       3.93052638      -0.02698235      -0.05948119      -0.06661170
Si       3.89335144      -0.00763688      -0.00538420      -0.10558971      -3.64289367       0.54832205
Si       5.71469279       1.19121280       0.77852884      -3.53659132       8.91724067      17.49504517
Si       5.74698970       1.11830556       3.15470135       0.16757217      -0.48576169      -0.19263461
Si       7.80867471       2.24965201       3.88996071      -1.96782073      -0.22411092      -1.53031380
Si       5.88304704       3.31099964       0.08785017      -0.11575253       0.49721314       0.58499916
Si       7.87713587       4.61204455       0.80705621      -0.07681846      -0.03920979       0.07371509