2
Lattice="30.0 0.0 0.0 0.0 30.0 0.0 0.0 0.0 30.0" Properties=species:S:1:pos:R:3:force:R:3 config_type=Bi_Bi_dimer energy=6.58320821 pbc="T T T"
Bi       0.00000000       0.00000000       0.00000000     -53.16130204       0.00000000      -0.00000000
Bi       1.90000000       0.00000000       0.00000000      53.16130204      -0.00000000       0.00000000
2
Lattice="30.0 0.0 0.0 0.0 30.0 0.0 0.0 0.0 30.0" Properties=species:S:1:pos:R:3:force:R:3 config_type=Bi_Bi_dimer energy=3.91891075 pbc="T T T"
Bi       0.00000000       0.00000000       0.00000000     -43.63069985      -0.00000000      -0.00000000
Bi       1.95517241       0.00000000       0.00000000      43.63069985       0.00000000       0.00000000
2
Lattice="30.0 0.0 0.0 0.0 30.0 0.0 0.0 0.0 30.0" Properties=species:S:1:pos:R:3:force:R:3 config_type=Bi_Bi_dimer energy=1.74578493 pbc="T T T"
Bi       0.00000000       0.00000000       0.00000000     -35.36322641      -0.00000000       0.00000000
Bi       2.01034483       0.00000000       0.00000000      35.36322641       0.00000000      -0.00000000
2
Lattice="30.0 0.0 0.0 0.0 30.0 0.0 0.0 0.0 30.0" Properties=species:S:1:pos:R:3:force:R:3 config_type=Bi_Bi_dimer energy=-0.00605869 pbc="T T T"
Bi       0.00000000       0.00000000       0.00000000     -28.34927322      -0.00000000       0.00000000
Bi       2.06551724       0.00000000       0.00000000      28.34927322       0.00000000      -0.00000000
2
Lattice="30.0 0.0 0.0 0.0 30.0 0.0 0.0 0.0 30.0" Properties=species:S:1:pos:R:3:force:R:3 config_type=Bi_Bi_dimer energy=-1.40359808 pbc="T T T"
Bi       0.00000000       0.00000000       0.00000000     -22.50007798      -0.00000000       0.00000000
Bi       2.12068966       0.00000000       0.00000000      22.50007798       0.00000000      -0.00000000
2
Lattice="30.0 0.0 0.0 0.0 30.0 0.0 0.0 0.0 30.0" Properties=species:S:1:pos:R:3:force:R:3 config_type=Bi_Bi_dimer energy=-2.50753906 pbc="T T T"
Bi       0.00000000       0.00000000       0.00000000     -17.68197773      -0.00000000       0.00000000
Bi       2.17586207       0.00000000       0.00000000      17.68197773       0.00000000      -0.00000000
2
Lattice="30.0 0.0 0.0 0.0 30.0 0.0 0.0 0.0 30.0" Properties=species:S:1:pos:R:3:force:R:3 config_type=Bi_Bi_dimer energy=-3.37066443 pbc="T T T"
Bi       0.00000000       0.00000000       0.00000000     -13.74474602      -0.00000000      -0.00000000
Bi       2.23103448       0.00000000       0.00000000      13.74474602       0.00000000       0.00000000
2
Lattice="30.0 0.0 0.0 0.0 30.0 0.0 0.0 0.0 30.0" Properties=species:S:1:pos:R:3:force:R:3 config_type=Bi_Bi_dimer energy=-4.03744058 pbc="T T T"
Bi       0.00000000       0.00000000       0.00000000     -10.54010331       0.00000000      -0.00000000
Bi       2.28620690       0.00000000       0.00000000      10.54010331      -0.00000000       0.00000000
2
Lattice="30.0 0.0 0.0 0.0 30.0 0.0 0.0 0.0 30.0" Properties=species:S:1:pos:R:3:force:R:3 config_type=Bi_Bi_dimer energy=-4.54446086 pbc="T T T"
Bi       0.00000000       0.00000000       0.00000000      -7.93230296       0.00000000       0.00000000
Bi       2.34137931       0.00000000       0.00000000       7.93230296      -0.00000000      -0.00000000
2
Lattice="30.0 0.0 0.0 0.0 30.0 0.0 0.0 0.0 30.0" Properties=species:S:1:pos:R:3:force:R:3 config_type=Bi_Bi_dimer energy=-4.92136022 pbc="T T T"
Bi       0.00000000       0.00000000       0.00000000      -5.80528273      -0.00000000      -0.00000000
Bi       2.39655172       0.00000000       0.00000000       5.80528273       0.00000000       0.00000000
2
Lattice="30.0 0.0 0.0 0.0 30.0 0.0 0.0 0.0 30.0" Properties=species:S:1:pos:R:3:force:R:3 config_type=Bi_Bi_dimer energy=-5.1919342 pbc="T T T"
Bi       0.00000000       0.00000000       0.00000000      -4.06349355       0.00000000       0.00000000
Bi       2.45172414       0.00000000       0.00000000       4.06349355      -0.00000000      -0.00000000
2
Lattice="30.0 0.0 0.0 0.0 30.0 0.0 0.0 0.0 30.0" Properties=species:S:1:pos:R:3:force:R:3 config_type=Bi_Bi_dimer energy=-5.37527101 pbc="T T T"
Bi       0.00000000       0.00000000       0.00000000      -2.63153398       0.00000000       0.00000000
Bi       2.50689655       0.00000000       0.00000000       2.63153398      -0.00000000      -0.00000000
2
Lattice="30.0 0.0 0.0 0.0 30.0 0.0 0.0 0.0 30.0" Properties=species:S:1:pos:R:3:force:R:3 config_type=Bi_Bi_dimer energy=-5.48677152 pbc="T T T"
Bi       0.00000000       0.00000000       0.00000000      -1.45071394       0.00000000      -0.00000000
Bi       2.56206897       0.00000000       0.00000000       1.45071394      -0.00000000       0.00000000
2
Lattice="30.0 0.0 0.0 0.0 30.0 0.0 0.0 0.0 30.0" Properties=species:S:1:pos:R:3:force:R:3 config_type=Bi_Bi_dimer energy=-5.53900088 pbc="T T T"
Bi       0.00000000       0.00000000       0.00000000      -0.47634341      -0.00000000       0.00000000
Bi       2.61724138       0.00000000       0.00000000       0.47634341       0.00000000      -0.00000000
2
Lattice="30.0 0.0 0.0 0.0 30.0 0.0 0.0 0.0 30.0" Properties=species:S:1:pos:R:3:force:R:3 config_type=Bi_Bi_dimer energy=-5.54236581 pbc="T T T"
Bi       0.00000000       0.00000000       0.00000000       0.32585056      -0.00000000      -0.00000000
Bi       2.67241379       0.00000000       0.00000000      -0.32585056       0.00000000       0.00000000
2
Lattice="30.0 0.0 0.0 0.0 30.0 0.0 0.0 0.0 30.0" Properties=species:S:1:pos:R:3:force:R:3 config_type=Bi_Bi_dimer energy=-5.50559724 pbc="T T T"
Bi       0.00000000       0.00000000       0.00000000       0.98259915       0.00000000      -0.00000000
Bi       2.72758621       0.00000000       0.00000000      -0.98259915      -0.00000000       0.00000000
2
Lattice="30.0 0.0 0.0 0.0 30.0 0.0 0.0 0.0 30.0" Properties=species:S:1:pos:R:3:force:R:3 config_type=Bi_Bi_dimer energy=-5.43610808 pbc="T T T"
Bi       0.00000000       0.00000000       0.00000000       1.51549495       0.00000000      -0.00000000
Bi       2.78275862       0.00000000       0.00000000      -1.51549495      -0.00000000       0.00000000
2
Lattice="30.0 0.0 0.0 0.0 30.0 0.0 0.0 0.0 30.0" Properties=species:S:1:pos:R:3:force:R:3 config_type=Bi_Bi_dimer energy=-5.34022899 pbc="T T T"
Bi       0.00000000       0.00000000       0.00000000       1.94240420      -0.00000000       0.00000000
Bi       2.83793103       0.00000000       0.00000000      -1.94240420       0.00000000      -0.00000000
2
Lattice="30.0 0.0 0.0 0.0 30.0 0.0 0.0 0.0 30.0" Properties=species:S:1:pos:R:3:force:R:3 config_type=Bi_Bi_dimer energy=-5.22336318 pbc="T T T"
Bi       0.00000000       0.00000000       0.00000000       2.27877221      -0.00000000      -0.00000000
Bi       2.89310345       0.00000000       0.00000000      -2.27877221       0.00000000       0.00000000
2
Lattice="30.0 0.0 0.0 0.0 30.0 0.0 0.0 0.0 30.0" Properties=species:S:1:pos:R:3:force:R:3 config_type=Bi_Bi_dimer energy=-5.09011836 pbc="T T T"
Bi       0.00000000       0.00000000       0.00000000       2.53833965       0.00000000      -0.00000000
Bi       2.94827586       0.00000000       0.00000000      -2.53833965      -0.00000000       0.00000000
2
Lattice="30.0 0.0 0.0 0.0 30.0 0.0 0.0 0.0 30.0" Properties=species:S:1:pos:R:3:force:R:3 config_type=Bi_Bi_dimer energy=-4.94439005 pbc="T T T"
Bi       0.00000000       0.00000000       0.00000000       2.73335412       0.00000000       0.00000000
Bi       3.00344828       0.00000000       0.00000000      -2.73335412      -0.00000000      -0.00000000
2
Lattice="30.0 0.0 0.0 0.0 30.0 0.0 0.0 0.0 30.0" Properties=species:S:1:pos:R:3:force:R:3 config_type=Bi_Bi_dimer energy=-4.78944942 pbc="T T T"
Bi       0.00000000       0.00000000       0.00000000       2.87407316      -0.00000000       0.00000000
Bi       3.05862069       0.00000000       0.00000000      -2.87407316       0.00000000      -0.00000000
2
Lattice="30.0 0.0 0.0 0.0 30.0 0.0 0.0 0.0 30.0" Properties=species:S:1:pos:R:3:force:R:3 config_type=Bi_Bi_dimer energy=-4.62803116 pbc="T T T"
Bi       0.00000000       0.00000000       0.00000000       2.96957665       0.00000000      -0.00000000
Bi       3.11379310       0.00000000       0.00000000      -2.96957665      -0.00000000       0.00000000
2
Lattice="30.0 0.0 0.0 0.0 30.0 0.0 0.0 0.0 30.0" Properties=species:S:1:pos:R:3:force:R:3 config_type=Bi_Bi_dimer energy=-4.46241539 pbc="T T T"
Bi       0.00000000       0.00000000       0.00000000       3.02741202       0.00000000      -0.00000000
Bi       3.16896552       0.00000000       0.00000000      -3.02741202      -0.00000000       0.00000000
2
Lattice="30.0 0.0 0.0 0.0 30.0 0.0 0.0 0.0 30.0" Properties=species:S:1:pos:R:3:force:R:3 config_type=Bi_Bi_dimer energy=-4.29449971 pbc="T T T"
Bi       0.00000000       0.00000000       0.00000000       3.05403339      -0.00000000       0.00000000
Bi       3.22413793       0.00000000       0.00000000      -3.05403339       0.00000000      -0.00000000
2
Lattice="30.0 0.0 0.0 0.0 30.0 0.0 0.0 0.0 30.0" Properties=species:S:1:pos:R:3:force:R:3 config_type=Bi_Bi_dimer energy=-4.125856 pbc="T T T"
Bi       0.00000000       0.00000000       0.00000000       3.05487201       0.00000000       0.00000000
Bi       3.27931034       0.00000000       0.00000000      -3.05487201      -0.00000000      -0.00000000
2
Lattice="30.0 0.0 0.0 0.0 30.0 0.0 0.0 0.0 30.0" Properties=species:S:1:pos:R:3:force:R:3 config_type=Bi_Bi_dimer energy=-3.95777962 pbc="T T T"
Bi       0.00000000       0.00000000       0.00000000       3.03438243      -0.00000000      -0.00000000
Bi       3.33448276       0.00000000       0.00000000      -3.03438243       0.00000000       0.00000000
2
Lattice="30.0 0.0 0.0 0.0 30.0 0.0 0.0 0.0 30.0" Properties=species:S:1:pos:R:3:force:R:3 config_type=Bi_Bi_dimer energy=-3.79133041 pbc="T T T"
Bi       0.00000000       0.00000000       0.00000000       2.99643969       0.00000000      -0.00000000
Bi       3.38965517       0.00000000       0.00000000      -2.99643969      -0.00000000       0.00000000
2
Lattice="30.0 0.0 0.0 0.0 30.0 0.0 0.0 0.0 30.0" Properties=species:S:1:pos:R:3:force:R:3 config_type=Bi_Bi_dimer energy=-3.62737307 pbc="T T T"
Bi       0.00000000       0.00000000       0.00000000       2.94470612      -0.00000000       0.00000000
Bi       3.44482759       0.00000000       0.00000000      -2.94470612       0.00000000      -0.00000000
2
Lattice="30.0 0.0 0.0 0.0 30.0 0.0 0.0 0.0 30.0" Properties=species:S:1:pos:R:3:force:R:3 config_type=Bi_Bi_dimer energy=-3.46659256 pbc="T T T"
Bi       0.00000000       0.00000000       0.00000000       2.88161795      -0.00000000      -0.00000000
Bi       3.50000000       0.00000000       0.00000000      -2.88161795       0.00000000       0.00000000
2
Lattice="30.0 0.0 0.0 0.0 30.0 0.0 0.0 0.0 30.0" Properties=species:S:1:pos:R:3:force:R:3 config_type=Bi_Bi_dimer energy=-2.66644904 pbc="T T T"
Bi       0.00000000       0.00000000       0.00000000       2.43204659       0.00000000      -0.00000000
Bi       3.80000000       0.00000000       0.00000000      -2.43204659      -0.00000000       0.00000000
2
Lattice="30.0 0.0 0.0 0.0 30.0 0.0 0.0 0.0 30.0" Properties=species:S:1:pos:R:3:force:R:3 config_type=Bi_Bi_dimer energy=-2.21302646 pbc="T T T"
Bi       0.00000000       0.00000000       0.00000000       2.10305696       0.00000000      -0.00000000
Bi       4.00000000       0.00000000       0.00000000      -2.10305696      -0.00000000       0.00000000
2
Lattice="30.0 0.0 0.0 0.0 30.0 0.0 0.0 0.0 30.0" Properties=species:S:1:pos:R:3:force:R:3 config_type=Bi_Bi_dimer energy=-1.35181965 pbc="T T T"
Bi       0.00000000       0.00000000       0.00000000       1.37376414       0.00000000       0.00000000
Bi       4.50000000       0.00000000       0.00000000      -1.37376414      -0.00000000      -0.00000000
2
Lattice="30.0 0.0 0.0 0.0 30.0 0.0 0.0 0.0 30.0" Properties=species:S:1:pos:R:3:force:R:3 config_type=Bi_Bi_dimer energy=-0.80419833 pbc="T T T"
Bi       0.00000000       0.00000000       0.00000000       0.84899164       0.00000000       0.00000000
Bi       5.00000000       0.00000000       0.00000000      -0.84899164      -0.00000000      -0.00000000
