16
Lattice="7.566594195261068 -0.15011367526971225 -0.18512702785395957 3.770156212352504 6.600213895976995 -0.11594206445238342 3.7328451185881035 2.1410933050328778 6.143965493543134" Properties=species:S:1:pos:R:3:force:R:3 config_type=Bi_subs virial="19.66019050068326 2.333886819270878 1.0997837063640428 2.333886819270878 13.99602104055006 1.9449695914154683 1.0997837063640428 1.9449695914154683 14.459854090912375" energy=-2.709728240000004 pbc="T T T"
Si       1.83336795       0.98699720       0.72866749       5.84960477       3.17738105       2.31814039
Si       1.75370148       0.90982832       3.06023546      -0.06596145      -0.02405880       0.12248901
Si       3.54374386       2.11215988       3.75420100      -0.13580236       0.03099902      -3.78975411
Si       1.81221629       3.29739286      -0.12293601      -0.26456321       0.05497458      -0.06891963
Si       3.66790186       4.24613881       0.64654429       0.00261940      -3.12432018       1.01372608
Si       3.55152580       4.29310599       2.89989548      -0.10704474      -0.00041303       0.18050619
Si       5.58505036       5.35055963       3.65131465       0.16131431      -0.02518746      -0.02191916
Si       3.61773003      -0.21409147      -0.28623407       0.15111427      -0.15472782      -0.11767579
Si       5.53203686       0.82162471       0.58467175      -3.59266232       1.92761564       1.41481357
Si       5.46665956       0.97736994       2.92502568       0.09996407      -0.04632094       0.02792685
Si       7.36702764       1.94007057       3.58595118       0.04508008       0.09532242       0.02810613
Si       5.56198415       3.17876570      -0.11002537       0.15641109      -0.11546231      -0.07321564
Si       7.59547381       4.27290105       0.52064838       0.07493399       0.04160298       0.12085924
Si       7.45474785       4.22438000       2.76691083      -0.04521952      -0.01429191      -0.05229899
Si       9.31198652       5.17493723       3.66213693      -0.02219430      -0.06525155      -0.05140139
Bi      -0.02240905      -0.04515736       0.01067859      -2.30759409      -1.75786172      -1.05138274
16
Lattice="7.639356118446268 -0.10612354485639491 -0.1930387208835437 3.7748066465868746 6.550118461149042 -0.1326182570151824 3.752122292670861 2.0855233082493276 6.1449179395848565" Properties=species:S:1:pos:R:3:force:R:3 config_type=Bi_subs virial="16.875347700166117 -3.393538513081842 -3.8575355340086053 -3.393538513081842 15.291675001894006 1.050151607449156 -3.8575355340086053 1.050151607449156 27.060757460588086" energy=-1.4322265299999941 pbc="T T T"
Si       1.96366513       1.02062927       0.65621177       3.06879257       1.68725040       1.23217085
Si       1.82685789       0.97290856       3.09863989      -0.02966357       0.02511090       0.09301411
Si       3.70731511       2.03732328       3.98958653       0.16598305      -0.16681808      -9.46323173
Si       1.95004200       3.25992159      -0.08192068      -0.05562200      -0.07077236      -0.14024874
Si       3.83815007       4.27216406       0.58118562       0.23123830      -3.97416295       1.34994923
Si       3.83388581       4.25957638       3.08997427      -0.04509104       0.07860965       0.03102032
Si       5.76386110       5.48245407       3.92586187       0.14231227      -0.05446592       0.09442717
Si       3.76905963      -0.08062600      -0.23401088      -0.03886074      -0.18005487      -0.24391457
Si       5.71727340       0.91173669       0.73160098      -5.40436765       3.15517512       2.83348066
Si       5.84931672       0.91900200       3.14915772       0.07064324      -0.05088881       0.23997669
Si       7.63334004       2.11216605       3.80321331       0.01483609       0.10523726       0.07295627
Si       5.80849292       3.29929752      -0.07561209       0.07653540       0.09984767      -0.14110618
Si       7.81703817       4.44577626       0.69214854       0.04062911       0.05176212       0.14228252
Si       7.62323214       4.30015139       3.07042634      -0.09586296      -0.05801249       0.02596857
Si       9.59480526       5.49885721       3.97497772      -0.04054500       0.00365868      -0.00271451
Bi      -0.13496823      -0.00752612       0.01973334       1.89904292      -0.65147631       3.87596933
16
Lattice="7.617472186016713 -0.12002130037789743 -0.17121813958872076 3.753076186588779 6.585874326341222 -0.1924160980914645 3.77166028819205 2.1362737568435923 6.22175731694933" Properties=species:S:1:pos:R:3:force:R:3 config_type=Bi_subs virial="17.657774614619573 -1.7596096761601023 -3.182437489055949 -1.7596096761601023 14.805388361401237 0.6432288636119421 -3.182437489055949 0.6432288636119421 25.766918165391427" energy=-1.4638110200000085 pbc="T T T"
Si       1.83835980       0.93011903       0.79577848       4.22004070       2.30338548       2.17105633
Si       1.78119406       0.96791937       3.17522693      -0.11054218      -0.08420636       0.00429623
Si       3.84362916       2.23886609       4.01225241       0.57545310       0.29845321      -8.65556838
Si       1.85442118       3.27542799      -0.24163848      -0.07006907      -0.19894925      -0.17374353
Si       3.70881640       4.29126967       0.57498789      -0.02753637      -3.54775738       1.16424531
Si       3.80692644       4.37639784       3.06336043      -0.03520606       0.17270441       0.10534247
Si       5.63083976       5.56788194       3.77952565       0.13635889       0.06807231       0.04906630
Si       3.67372700      -0.00749855      -0.19658286      -0.09732227      -0.14236797      -0.26285959
Si       5.66701447       0.92924912       0.64470718      -5.28293680       3.15125621       2.47191799
Si       5.82377444       0.97904307       3.02770703       0.05654179      -0.06139527       0.29398434
Si       7.68490898       2.11272832       3.77796162       0.12900171       0.04195534      -0.03074654
Si       5.76892093       3.16789951      -0.00452541      -0.01524671       0.18999145      -0.12066190
Si       7.73320219       4.37996758       0.68757343       0.07046166       0.00429456       0.18190838
Si       7.56886900       4.44428309       3.06992409      -0.14989491       0.00091601       0.02776023
Si       9.45708062       5.63499275       3.93558820      -0.00069443      -0.06134824      -0.02677340
Bi      -0.14149225      -0.01958076      -0.02317883       0.60159095      -2.13500450       2.80077576
16
Lattice="7.561969938847882 -0.11041326233655509 -0.10614937580201625 3.732100991101175 6.527369866214121 -0.15521489216963524 3.700341952258984 2.142244219306046 6.14556633077725" Properties=species:S:1:pos:R:3:force:R:3 config_type=Bi_subs virial="13.867826278385888 -4.800007693980072 -2.4323810548108824 -4.800007693980072 22.78098951957904 -3.6703587663549304 -2.4323810548108824 -3.6703587663549304 15.925307764595756" energy=-2.036683580000002 pbc="T T T"
Si       1.94450383       1.06177371       0.81562666       1.63250401       1.17444787       0.69336627
Si       1.83553916       1.11938177       3.03833182      -0.01859307       0.01520661      -0.13717059
Si       3.79668931       2.04477550       3.78388477       0.20384123       0.06180604      -3.61685443
Si       1.87366355       3.28937986      -0.03641013      -0.08846120      -0.15158611       0.02469623
Si       3.86190949       4.40498516       0.68581971       0.79102728      -8.10829241       3.27455254
Si       3.73878979       4.42528739       3.11651845      -0.02508085       0.07958859       0.09252559
Si       5.52731596       5.38069624       3.85108919       0.06642633       0.02111344      -0.02849369
Si       3.84310686      -0.09586817      -0.05413531      -0.33256996      -0.12306794      -0.10983143
Si       5.56919723       0.95957550       0.63999595      -4.61276423       2.80445584       1.74891775
Si       5.74919421       1.03995491       3.09184158       0.03184756      -0.02637846       0.20761964
Si       7.57956585       2.13563466       3.87810769       0.10488737       0.07906087       0.07955635
Si       5.63231909       3.11535964      -0.08133491       0.05538278       0.27044154      -0.26440739
Si       7.58758002       4.40726608       0.63634102       0.11279540       0.10260931       0.06961231
Si       7.61136860       4.43035828       2.98403637      -0.04302673      -0.04342727       0.00166246
Si       9.38899674       5.37361561       3.89226506      -0.02406786      -0.05126447       0.01662916
Bi      -0.16676556      -0.10958676       0.02807225       2.14585194       3.89528655      -2.05238077
16
Lattice="7.6353196329827595 -0.1950438571199156 -0.11840120176965219 3.7001513945481803 6.58711535794846 -0.17238722565744413 3.7275711909894187 2.063083164049521 6.22622315373273" Properties=species:S:1:pos:R:3:force:R:3 config_type=Bi_subs virial="17.69039680729204 -7.166657858441601 -5.550581582647309 -7.166657858441601 17.715473399178766 1.103601672393947 -5.550581582647309 1.103601672393947 19.37045439117229" energy=-1.7603535300000033 pbc="T T T"
Si       1.96851737       1.02404319       0.69505315       2.14928899       1.28055919       0.88023148
Si       1.89402047       1.07311806       3.10702397      -0.09410758      -0.00983046      -0.13616641
Si       3.74073140       2.16112628       3.94996562       0.24661554       0.27243134      -5.87208681
Si       1.78316181       3.33536985      -0.10962904      -0.14212523      -0.20025239       0.00488277
Si       3.82130487       4.29600523       0.58595150       0.26228326      -4.03351909       1.25295358
Si       3.84176504       4.40320441       3.14688077      -0.08000640       0.15453856       0.15680183
Si       5.64122173       5.40805275       3.88429311       0.13036481      -0.04221251       0.08269587
Si       3.72424683      -0.03450958      -0.14417760       0.03925462      -0.13276072      -0.05805520
Si       5.80871842       0.87075188       0.72118365      -7.41462950       4.88813780       3.68484808
Si       5.73272755       0.99730914       3.12707878       0.14021298      -0.12391649       0.10184865
Si       7.77111490       2.10913856       3.83447847       0.09899949       0.07896970      -0.00334691
Si       5.75116469       3.22457430      -0.10531323       0.18917569       0.07147628      -0.18073892
Si       7.69761436       4.33417513       0.66178875       0.10098348      -0.00540629       0.02998065
Si       7.69622608       4.41882665       3.11206134      -0.10467897      -0.00005870       0.01088531
Si       9.68529874       5.41124924       3.95469880       0.03451700      -0.06524411       0.02169060
Bi      -0.17654527      -0.06074981       0.00956233       4.44385180      -2.13291214       0.02357543
16
Lattice="7.645741032199048 -0.17327851448756357 -0.1005726727146591 3.7839714529175423 6.509804052737845 -0.19978837474383318 3.7208339571466817 2.04437791490222 6.152161201987573" Properties=species:S:1:pos:R:3:force:R:3 config_type=Bi_subs virial="17.58087431824665 1.3225817236874855 1.1356016244109604 1.3225817236874855 12.785221327526463 0.0306935282268459 1.1356016244109604 0.0306935282268459 22.60229556522343" energy=-2.1167753600000054 pbc="T T T"
Si       1.86810869       1.00550653       0.61933074       5.98604225       3.30211333       2.32345136
Si       1.89289939       0.94895394       2.94424852      -0.03453359      -0.09874375       0.07638201
Si       3.72529146       2.03951137       3.83872231      -0.07866627      -0.10178117      -7.40712154
Si       2.02414494       3.19023531      -0.08111277      -0.15569986      -0.15431679      -0.11751512
Si       3.77047874       4.22782733       0.67107967       0.09853556      -2.64712208       1.07705504
Si       3.80320304       4.25184018       3.06311978      -0.05060142       0.15488513       0.00420231
Si       5.81535482       5.39459107       3.76604254       0.11758367      -0.03310180       0.03845311
Si       3.75561641      -0.16779977      -0.10745577       0.05369266      -0.21467718      -0.10172237
Si       5.71758991       0.97054221       0.71790483      -3.07640007       1.88572580       1.33844242
Si       5.74261796       1.09124406       3.01165085       0.13087527      -0.10875406       0.07661097
Si       7.76731722       2.14410024       3.86144692      -0.05386711       0.18504560       0.05503821
Si       5.76638903       3.24822980      -0.12808938       0.06450611      -0.09964756      -0.07700646
Si       7.77556213       4.35497297       0.67548828      -0.04203998       0.11571917       0.15934840
Si       7.67792431       4.31941743       2.94202307      -0.01904670      -0.02668936      -0.06979174
Si       9.68792577       5.49070226       3.79957656      -0.03707004      -0.00110936       0.04237769
Bi      -0.01980423      -0.00997648      -0.07643709      -2.90331048      -2.15754590       2.58179569
16
Lattice="7.597839966388965 -0.1917261102662085 -0.10064057446646812 3.7079026726654463 6.5433554655603 -0.16235423374950536 3.7759658462369523 2.0537816130163185 6.176163815801536" Properties=species:S:1:pos:R:3:force:R:3 config_type=Bi_subs virial="10.251352057782812 -2.9357394777717305 -1.9948579948087044 -2.9357394777717305 20.010988256244996 -5.789909088392418 -1.9948579948087044 -5.789909088392418 22.38474124787069" energy=-2.0993398099999894 pbc="T T T"
Si       1.83778622       1.04878887       0.76603790       2.05772038       1.42835730       0.90390402
Si       1.80797609       1.10618957       3.06957428      -0.12118061      -0.08088235      -0.18065139
Si       3.79811999       2.11369168       3.86586810       0.43876279       0.43732392      -6.56552092
Si       1.82309042       3.25369390      -0.16279924      -0.02206778      -0.26750116      -0.07138171
Si       3.77418837       4.39916599       0.79870557       0.51917882      -6.74556940       3.08487926
Si       3.67014745       4.38526440       3.07798973      -0.06108000       0.18520433       0.23423862
Si       5.74913077       5.46540006       3.96471617       0.10074062      -0.02636023       0.08611078
Si       3.69928207      -0.04774905      -0.10399719      -0.12900736      -0.06841883      -0.06327415
Si       5.65686525       0.96583652       0.72200360      -3.14242123       2.13490030       1.52467692
Si       5.81055492       0.99990743       3.09324094       0.08530158      -0.16134405       0.08698745
Si       7.60172869       2.04107214       3.73339517       0.07587687       0.11384545       0.00948213
Si       5.73081644       3.22403271      -0.02203537       0.10183455       0.08966623      -0.22199517
Si       7.70604066       4.49291252       0.71782795       0.03383561       0.05055314       0.12610598
Si       7.56713770       4.39750064       3.03052479      -0.08824347      -0.05425911       0.02670074
Si       9.54482002       5.59988679       3.99292948      -0.01809793       0.07491616      -0.01252622
Bi      -0.18084254      -0.18711871      -0.07192860       0.16884715       2.88956828       1.03226364
16
Lattice="7.601960167499422 -0.1488196029228621 -0.1906046448754102 3.703531319092861 6.515690337864676 -0.16668481286609735 3.7425419232592105 2.062253829113099 6.197342311515343" Properties=species:S:1:pos:R:3:force:R:3 config_type=Bi_subs virial="11.235593126417594 1.4886339411206162 1.3659254817641018 1.4886339411206162 20.317081594411654 -8.036637876592522 1.3659254817641018 -8.036637876592522 33.98559306519755" energy=-0.2661575099999993 pbc="T T T"
Si       1.80359672       1.02086184       0.79406558       3.91471029       2.59553936       1.94286905
Si       1.74736410       0.97496423       3.06959528      -0.06149489      -0.10317417       0.03552494
Si       3.74268374       2.16531801       3.99401410       0.02492085       1.20697023     -12.35208351
Si       1.95464058       3.25536255      -0.17628690      -0.10792388      -0.32748671      -0.06944731
Si       3.89217688       4.40725303       0.68541871       0.46906773      -7.63093102       3.61381422
Si       3.78757493       4.46253681       3.04393276      -0.03660813       0.18462597       0.23568632
Si       5.60757120       5.49546710       3.79861229       0.08923429       0.07468142      -0.01249588
Si       3.84596554      -0.15742626      -0.31158365      -0.25108946      -0.01103954      -0.05541489
Si       5.60797751       1.07972772       0.53659676      -1.49602502       0.70107907       0.70324534
Si       5.74581384       0.98724160       2.98375024      -0.00516473      -0.07766744       0.04620579
Si       7.73459284       2.13335916       3.70960504       0.05305739       0.11611729       0.09027186
Si       5.80451207       3.26544972      -0.10492084       0.08417159       0.04242632      -0.22997542
Si       7.68892231       4.53908429       0.65774765       0.01813840       0.11922755       0.18382873
Si       7.72295866       4.49695949       2.98920432      -0.04674855      -0.08574748      -0.06209616
Si       9.59487064       5.46159113       3.94346832      -0.04598645       0.01011257       0.10507930
Bi      -0.01520722      -0.15576213      -0.12716386      -2.60225945       3.18526659       5.82498763
16
Lattice="7.596493131460411 -0.15669592856589157 -0.131785754851159 3.7334040840420197 6.592447841672549 -0.12275130232420231 3.7044762263235786 2.098044458490544 6.2163849274859215" Properties=species:S:1:pos:R:3:force:R:3 config_type=Bi_subs virial="14.674572361983955 -1.1367188567838393 -1.675900090698237 -1.1367188567838393 14.066097938800585 0.008570142962909118 -1.675900090698237 0.008570142962909118 18.46395336644173" energy=-2.8829044400000043 pbc="T T T"
Si       1.92433657       0.90094190       0.78654186       3.83783302       1.96412140       1.52153410
Si       1.88233439       1.09576338       3.12114974      -0.27490184      -0.05269819      -0.14870487
Si       3.67030539       2.24185592       3.89744046       0.12365110       0.16727667      -5.35125939
Si       1.87392361       3.35960633      -0.04432257      -0.07725157      -0.25794576      -0.00054995
Si       3.82498176       4.35013038       0.80110324      -0.01753670      -3.25654294       1.10271661
Si       3.69192356       4.37505671       3.18964624      -0.09166340       0.23839085      -0.01168441
Si       5.74849787       5.54848038       3.93595745       0.14765279      -0.02004370       0.04598939
Si       3.67988717      -0.02141895      -0.21076905      -0.06261245      -0.09506127      -0.15709386
Si       5.70895783       1.05969362       0.78637507      -3.63720043       2.38098477       1.80956165
Si       5.76835508       1.11003251       3.06288392       0.09364720      -0.06685989       0.14287817
Si       7.72426868       2.22278030       3.86431557       0.07511515       0.09129858       0.06267580
Si       5.78414069       3.34054058       0.02839325       0.11027390       0.05454644      -0.18750428
Si       7.64159080       4.44029153       0.68772103       0.00066288       0.08823462       0.10624632
Si       7.64528697       4.41064141       3.11884071      -0.06312906      -0.05032768      -0.01450873
Si       9.51959762       5.63704324       4.02745803       0.01471272      -0.05046422       0.05022976
Bi      -0.11617310      -0.01800803      -0.01237528      -0.17925332      -1.13490968       1.02947368
16
Lattice="7.6486612997393335 -0.16289687414752918 -0.11220546251437356 3.7044932991630555 6.538994678606945 -0.10658595691108622 3.760400412635341 2.143370274803916 6.162242799433582" Properties=species:S:1:pos:R:3:force:R:3 config_type=Bi_subs virial="10.131419668087323 -0.5999353668108323 -0.6385679700004971 -0.5999353668108323 14.626277752618758 -4.434168185920258 -0.6385679700004971 -4.434168185920258 35.02902269174275" energy=-0.8194333900000004 pbc="T T T"
Si       1.96434782       1.05648100       0.62722728       2.41922483       1.47283373       1.00285672
Si       1.93646426       1.03212447       3.08123202      -0.13253140      -0.01895731      -0.12518737
Si       3.78217056       2.18018912       3.97008307       0.01847613       1.26743447     -14.44828173
Si       1.83510662       3.27338770      -0.05921381      -0.13582593      -0.26103033       0.05888647
Si       3.87148554       4.24369370       0.75728528       0.26374685      -4.15125350       1.72973448
Si       3.71594722       4.31685578       3.05448819      -0.04938056       0.17173411       0.15984827
Si       5.63648541       5.42847115       3.89324691       0.10607718       0.02211634       0.09729623
Si       3.89893482      -0.19394475      -0.22086889      -0.15415493      -0.08884606      -0.00607818
Si       5.78038565       0.91878227       0.78140531      -2.27066193       1.26812168       1.13004842
Si       5.72102482       1.02753636       2.96850474       0.13672932      -0.10894989       0.06165019
Si       7.81634748       2.06664311       3.79936411       0.08079287       0.04195266       0.11999146
Si       5.87079935       3.17675111       0.04463445       0.06037558       0.06923160      -0.03924440
Si       7.72373194       4.45046273       0.60251769       0.06413083       0.13317888       0.00459391
Si       7.71220655       4.35473169       2.99187872      -0.07277475      -0.04062836      -0.08190973
Si       9.59591476       5.57422515       3.80210753      -0.00354981       0.01798454      -0.01497826
Bi      -0.02735830      -0.19222166      -0.15940196      -0.33067429       0.20507745      10.35077349
16
Lattice="7.641501430778508 -0.14497549258273032 -0.16141593258557668 3.6937728004465735 6.584315032145453 -0.17679860063113767 3.7137339724723533 2.1200075863030214 6.167793118937307" Properties=species:S:1:pos:R:3:force:R:3 config_type=Bi_subs virial="13.929648269737946 0.4822024390428661 0.5492544838777031 0.4822024390428661 20.961141189062666 -3.4497788092374657 0.5492544838777031 -3.4497788092374657 24.816263280139566" energy=-1.1805630700000052 pbc="T T T"
Si       1.76842701       0.98325504       0.61211203       4.46622989       2.83107884       1.83381143
Si       1.73138753       1.01711371       3.13360382      -0.05293642       0.01323514      -0.11644781
Si       3.69823239       2.11850061       3.98997944       0.12204529       0.42515379      -9.10458323
Si       1.87336755       3.34587234      -0.22784871      -0.26308352      -0.36251306      -0.03507396
Si       3.86090816       4.33157544       0.55261420       0.72560371      -6.88476920       2.33758949
Si       3.75216975       4.34765878       3.08650856      -0.02046863       0.07759303       0.18522199
Si       5.65872734       5.51117764       3.80997695       0.15426144       0.04607897       0.05184028
Si       3.83215209      -0.15487117      -0.17250701      -0.41203397      -0.15714300      -0.02296020
Si       5.55965954       1.00667927       0.71407931      -2.00238777       1.16388901       0.94592836
Si       5.67436402       1.06469331       3.04532147       0.03597508      -0.03541560       0.18538169
Si       7.72057786       2.08736261       3.67475118       0.15172610       0.05201446      -0.03127954
Si       5.78146460       3.34448031      -0.00936456       0.10931384       0.10569082      -0.08460148
Si       7.74778905       4.48182851       0.59042103       0.04448477       0.08002857       0.09173073
Si       7.70842608       4.46922221       2.97874130      -0.11220517      -0.04581478      -0.03294248
Si       9.42122469       5.48862863       3.84484612      -0.08659317       0.01472758       0.01330778
Bi      -0.17846585      -0.17142046      -0.00102214      -2.85993144       2.67616543       3.78307694
16
Lattice="7.656396829202084 -0.16345623612864335 -0.1784342767028601 3.7439787082559373 6.591704929493569 -0.11300816846848162 3.740303247916111 2.079956025311994 6.146967561614956" Properties=species:S:1:pos:R:3:force:R:3 config_type=Bi_subs virial="10.034680816884553 0.42333967902639813 -1.4193351492213537 0.42333967902639813 12.23881247102302 -2.227907177821953 -1.4193351492213537 -2.227907177821953 30.917090818594165" energy=-1.8194051899999977 pbc="T T T"
Si       1.82914460       1.06475465       0.76645954       2.94842064       1.97113938       1.39663540
Si       1.90636377       1.10116915       3.04488520      -0.19294506      -0.14548067      -0.19053365
Si       3.79823245       2.09636850       3.88933470       0.66837263       0.57874559     -11.94913536
Si       1.84602612       3.18415426      -0.14475851       0.01773514      -0.02673339      -0.06941611
Si       3.85300498       4.30965423       0.80269252       0.06389007      -3.02017833       1.20505806
Si       3.75057312       4.35741398       3.19184762      -0.09893582       0.29443159      -0.01208414
Si       5.65727120       5.49236540       3.90462470       0.06639335      -0.08901323       0.14405728
Si       3.72175664      -0.04134749      -0.15287614      -0.05192012      -0.12289231      -0.08198494
Si       5.60628029       0.93397327       0.58223141      -2.00608253       1.19766778       0.91937832
Si       5.72004766       0.91878746       3.10182525       0.13359308      -0.20323568      -0.08516626
Si       7.66299362       2.15613493       3.72051662       0.02053373       0.16439524       0.09157225
Si       5.85201066       3.23459480       0.03387791       0.04919993       0.07527277      -0.15470099
Si       7.79837331       4.46416902       0.72911714       0.04528524       0.00559594       0.13220505
Si       7.79817885       4.40711107       3.07309502      -0.03626726      -0.02191802      -0.06825212
Si       9.63610734       5.41510768       3.99476038       0.01514293      -0.02022189       0.08333937
Bi      -0.06709198      -0.10663700      -0.16741809      -1.64241594      -0.63757478       8.63902784
16
Lattice="7.567967302734493 -0.10733566820809089 -0.1287860274151369 3.7141637611852447 6.553731166070269 -0.12901177904663097 3.7060056684849223 2.1374938317300964 6.17307242662973" Properties=species:S:1:pos:R:3:force:R:3 config_type=Bi_subs virial="18.628542741360526 2.3375432871341904 1.4446377055638724 2.3375432871341904 23.679948189790963 -2.04341754388223 1.4446377055638724 -2.04341754388223 21.786979364112092" energy=-0.7863351900000026 pbc="T T T"
Si       1.76983051       0.90034520       0.72162592       6.75575896       3.82285827       2.86934739
Si       1.80506828       0.99603009       3.16535061      -0.10799775      -0.11752505      -0.20088886
Si       3.76563565       2.18849667       3.91274915       0.14701935       0.22013148      -6.51141991
Si       1.82614843       3.34944639      -0.14232667      -0.16406289      -0.18118221      -0.05263167
Si       3.77813933       4.40956785       0.60061016       0.24190067      -8.00259241       2.67220446
Si       3.78760367       4.42984081       3.08489115      -0.00782185       0.15736612       0.03670099
Si       5.66756327       5.49633764       3.78362739       0.20848856      -0.00808855      -0.01385936
Si       3.66362160      -0.09794929      -0.16625502      -0.20386522      -0.13812208      -0.17767893
Si       5.51947004       0.96960996       0.74305957      -2.79925486       1.58469916       1.18542979
Si       5.61886506       1.12716764       3.17643117       0.12309268      -0.06478724       0.09088195
Si       7.53402788       2.21130348       3.91570059       0.01524380       0.11642546       0.08501306
Si       5.75204884       3.20393169       0.03729153       0.02111515       0.24184924      -0.12740436
Si       7.58517082       4.36857884       0.66441061       0.06820147       0.05465088       0.11308352
Si       7.51381580       4.52338031       3.11700406      -0.15778592       0.00288807       0.01503689
Si       9.39945671       5.57609036       3.99312700      -0.07415853      -0.02021538       0.02332396
Bi      -0.10253692      -0.06728538       0.00203195      -4.06587362       2.33164425      -0.00713888
16
Lattice="7.595801485505852 -0.12402108927186228 -0.11917010730897415 3.7445152143342604 6.517454881265391 -0.13894850539865092 3.7621274704639136 2.132647241903316 6.164546176787825" Properties=species:S:1:pos:R:3:force:R:3 config_type=Bi_subs virial="15.021674389659257 -0.6987299094153405 -1.899375028014625 -0.6987299094153405 14.98021202824676 -1.0844927119502268 -1.899375028014625 -1.0844927119502268 31.520723275853555" energy=-0.9189830199999989 pbc="T T T"
Si       1.85125273       0.88857686       0.74189671       3.97854179       2.18704057       1.82245737
Si       1.86982411       1.02698040       3.07697861      -0.18883333      -0.05999489      -0.10757046
Si       3.78795298       2.16185925       3.96971808       0.70362906       0.45724720     -11.83994330
Si       1.95700176       3.25912268      -0.06224128      -0.17713900      -0.31315769      -0.04731734
Si       3.80284165       4.26639874       0.69589147       0.11924503      -4.17099374       1.58614877
Si       3.85206433       4.28209538       3.06181439      -0.04496675       0.21892871       0.12277191
Si       5.67972555       5.40534780       3.86993494       0.07874687      -0.00809521       0.05887880
Si       3.80400082      -0.09972573      -0.19368041      -0.26620181      -0.09576717      -0.16109843
Si       5.60904109       0.95522110       0.69314084      -3.26021740       1.98959471       1.64504462
Si       5.85740447       1.02033768       3.14802278       0.11733207      -0.05390498       0.08411221
Si       7.75497337       2.09250171       3.80094266       0.05416903       0.04802923       0.12290878
Si       5.83851582       3.20629677      -0.13684078       0.00625101       0.09864376      -0.14929376
Si       7.77760781       4.39407861       0.68116954       0.04476754       0.06165361       0.10436801
Si       7.72860725       4.46293554       3.06266351      -0.04986902      -0.02987402      -0.05840250
Si       9.70043400       5.40215547       3.83293827      -0.00611317      -0.02456735       0.05324170