17
Lattice="7.7435099263 0.0 0.0 3.8781589044 6.6915809802 0.0 3.8551684122 2.2397387631 6.3562095654" Properties=species:S:1:pos:R:3:force:R:3 config_type=Bi_int virial="19.338243947759864 -11.194505621877617 -6.500873588973282 -11.194505621877617 41.08766755702121 -8.83726869086631 -6.500873588973282 -8.83726869086631 41.487661586560385" energy=8.920906469999991 pbc="T T T"
Si       1.98275554       1.11276674       0.78597677       0.13036925       0.06695206       0.02053452
Si      -0.08665174       0.10521540       0.03788899       2.28676825      -1.97691000       2.24434353
Si       1.88741215       1.09119489       3.16416375      -0.16989109      -0.38687474      -0.29909585
Si       3.78986722       2.22540294       4.01800978       2.91179555      -3.75519495      -2.23442373
Si       1.97224295       3.39708967      -0.00401409      -0.07851816       0.03676673       0.00204482
Si       3.93171284       4.42287267       0.84999865      -0.07488498      -0.43409540       0.05300706
Si       3.82753164       4.47393325       3.14835953       2.36018988       1.20166626      -2.94198169
Si       5.72264392       5.52487613       3.98457543      -0.03066552       0.01859032       0.12946013
Si       3.85996242      -0.02609998      -0.11152602      -0.69036701      -0.55496541       0.35429279
Si       5.71893483       1.08895863       0.83337352      -1.86966062      -1.74679159       6.38938244
Si       5.79561286       1.17712253       3.22569901       0.27391761       0.45074411      -0.01685456
Si       7.85037987       2.24391305       3.93559643      -0.37214671      -0.35442076      -0.11011958
Si       5.84251643       3.33684425       0.13054984      -0.64253118       4.34434434       3.83054864
Si       7.78103085       4.52510570       0.76624930       0.01915440       0.03630499      -0.08248366
Si       7.72340751       4.43974001       3.12320186      -0.81997614       0.13726712      -0.75340224
Si       9.65926661       5.55585256       4.04744922      -2.69979215       9.94999134      -5.87989003
Bi      -5.40056418      -5.17366082      -1.32803299      -0.53376139      -7.03337444      -0.70536256
17
Lattice="7.833720727 0.0 0.0 3.8663042279 6.7441854414 0.0 3.8531317687 2.2538391875 6.3768564013" Properties=species:S:1:pos:R:3:force:R:3 config_type=Bi_int virial="25.348085352367388 -17.255635711683563 -20.94239805851268 -17.255635711683563 44.327716684914286 -7.9194460392748685 -20.94239805851268 -7.9194460392748685 52.17119176447547" energy=12.664968020000003 pbc="T T T"
Si       2.00613902       1.08584888       0.80794310       0.14263459      -0.05042855       0.08753703
Si      -0.12120332       0.00734846       0.04640976       1.39558284      -2.60607372       3.52947584
Si       1.99246947       1.06955616       3.09031060      -0.03411859      -0.50813563      -0.38216636
Si       3.88713117       2.28180935       3.95083150       7.68358840     -12.70188142      -7.14391779
Si       2.01892718       3.37626295      -0.05579193      -0.00762812      -0.04720318      -0.00413740
Si       3.88904977       4.50571483       0.77082508      -0.09515552      -0.09656628      -0.22242487
Si       3.71720205       4.45013332       3.15068904       9.53402586       6.89066428     -17.39771655
Si       5.73491259       5.62099199       3.87551005       0.29048422       0.19069444      -0.30298516
Si       3.80680139       0.01176418      -0.18663817      -0.14652092      -0.03821595      -0.01898423
Si       5.88424217       1.16368549       0.75735270      -0.85652767      -0.33465109       1.84182299
Si       5.81761347       1.03324066       3.11478513       0.31799987      -0.29535027       0.10852594
Si       7.82410361       2.27563869       3.96607688      -0.03595249       0.03125047       0.03778703
Si       5.80812726       3.33068087       0.01787537      -0.85592794       1.27672334       1.44447783
Si       7.80736619       4.59676356       0.72359631       0.03577792       0.09624912      -0.01457307
Si       7.83750015       4.51126863       3.17685798      -0.11841010       0.11648304      -0.04889284
Si       9.58146530       5.67482538       3.95032712      -3.66214835       4.93292132      -2.07961939
Bi       3.00778838      -5.17804800      -1.59799267     -13.58770397       3.14352006      20.56579101
17
Lattice="7.6883604835 0.0 0.0 3.8936120746 6.7541672801 0.0 3.8773058056 2.2490006589 6.2846729141" Properties=species:S:1:pos:R:3:force:R:3 config_type=Bi_int virial="39.91082063494436 0.6557890768793347 0.9437455993844401 0.6557890768793347 19.440515911559476 7.0971944277392645 0.9437455993844401 7.0971944277392645 32.69198811185122" energy=7.349121270000012 pbc="T T T"
Si       1.98287641       1.10669565       0.80483072       2.42648408       0.76330124      -1.76579595
Si       0.02126424       0.00602044       0.01844356      -0.00702622      -1.04554590      -5.73703373
Si       1.91871026       1.13888031       3.12330121       6.91730519       2.70484251       2.62132480
Si       3.85104135       2.22011116       4.07208233      -0.07238528       0.24501259       0.55543198
Si       1.98436108       3.39237366       0.02721188      -0.02078373       0.02385977       0.11839754
Si       3.91476019       4.49332828       0.78178687       0.05333612      -0.79687594      -0.56067244
Si       3.86037121       4.53984862       3.10181612       0.05347186      -1.18410468       0.22522974
Si       5.71613100       5.56700608       3.91351449       0.90852172      -0.95296755       0.81497912
Si       3.78137146       0.07289837      -0.09485591      -0.10585638      -0.03076268      -0.15762278
Si       5.75759252       1.09912843       0.76287799      -2.10998401       0.91736681      -1.70374047
Si       5.76777455       1.12671137       3.07271100      -6.32619792       2.26093822       2.06067832
Si       7.70625858       2.33743012       3.98535379       0.02089443       2.56367060       2.36687622
Si       5.80311870       3.24701009       0.11897718       0.03958702      -0.13540152       0.13079763
Si       7.77222345       4.62835264       0.82751929      -0.02549319       0.07805798      -0.02849916
Si       7.68717707       4.59202905       3.16545225       0.01443263      -0.02073703      -0.13865779
Si       9.59147452       5.62146255       4.02533080      -0.80279620      -0.60183288       0.71882984
Bi       3.82155308      -6.39237725       2.29567598      -0.96351013      -4.78882152       0.47947714
17
Lattice="7.7406426133 0.0 0.0 3.8981351067 6.6871532628 0.0 3.9256723158 2.2425924754 6.3355293415" Properties=species:S:1:pos:R:3:force:R:3 config_type=Bi_int virial="20.56034281996867 16.260546949952666 12.41487050035105 16.260546949952666 40.38424325320697 -6.9364226352627005 12.41487050035105 -6.9364226352627005 43.66341228079244" energy=9.234851449999994 pbc="T T T"
Si       2.00313736       1.10143464       0.83075872       4.39811946       5.23145909      -3.42333694
Si      -0.02212601      -0.00110522      -0.05701130      -4.47643780       2.37459639      -8.14072157
Si       1.96610447       1.14028787       3.25440645       1.73515015       3.38219283       2.99503152
Si       3.83358444       2.19529025       4.09447227       0.04177804      -0.47003498       0.37526910
Si       1.99283573       3.37131321      -0.04155015      -0.37199415       0.40196248      -0.06324197
Si       3.96481768       4.42979705       0.79627164      -2.43730251      -6.97432897      -3.75920588
Si       3.90903900       4.41592925       3.03821105      -2.77023783      -4.84257837       3.01509101
Si       5.87977159       5.60847372       3.91216367       2.69761579      -1.21618852       3.95486100
Si       3.86864557       0.02619419      -0.13121741       0.20834504       0.00272469      -0.22812064
Si       5.79351766       1.10098709       0.80693270      -0.26533265       0.13954644      -0.15556596
Si       5.90345762       1.11582600       3.19776828       0.04733357       0.08376260       0.01481668
Si       7.79366559       2.29738917       3.81458426       0.04056154       0.17547897       0.07531009
Si       5.79507081       3.38659653       0.04253161      -0.04068542      -0.17001485      -0.12061191
Si       7.82870428       4.60398390       0.77047607      -0.02606843       0.02653283       0.04976150
Si       7.74180372       4.57337199       3.15601887       0.09191573      -0.09974740       0.11100778
Si       9.62557307       5.59401121       3.99445603      -0.34562738      -0.03795283       0.16014770
Bi      -6.86733092       3.92208684      -4.45821074       1.47286686       1.99258960       5.13950852
17
Lattice="7.7473126541 0.0 0.0 3.8603033831 6.7544868407 0.0 3.905696256 2.2280536324 6.3942003089" Properties=species:S:1:pos:R:3:force:R:3 config_type=Bi_int virial="27.221125732927135 8.091829957939368 5.397064920643129 8.091829957939368 30.99609097853873 -1.737546893737521 5.397064920643129 -1.737546893737521 39.4916823295619" energy=7.839947780000003 pbc="T T T"
Si       2.02902958       1.02017283       0.90942534      -1.58077593       0.79560156      -0.83279949
Si       0.00618547       0.03143189       0.00935578      -0.02612893      -0.15477261      -0.08336942
Si       2.03096244       1.06393340       3.21612392      -1.34196532       0.78573275       0.55097731
Si       3.88235728       2.19964180       4.00534333      -0.13625859       0.73219525       0.51559532
Si       1.95475509       3.39875979      -0.00282185       0.14561909       0.15936767      -0.12767239
Si       3.93601539       4.37043824       0.79149814       0.02368483      -0.06115882       0.01361306
Si       3.88887965       4.49427014       3.24612496       0.05815403       0.05742050      -0.00935572
Si       5.73495785       5.51369664       3.99396641      -0.57780952      -0.30255837       0.34155614
Si       3.80378390       0.03629792      -0.13456313      -1.89183368       0.41411053      -8.85190326
Si       5.74241700       1.12668966       0.88138768       4.30346527       3.28452460      -2.53979424
Si       5.89041314       1.10501761       3.12040655       4.28563803       2.81955294       2.21332323
Si       7.73038012       2.15098301       3.99490230      -0.14590635      -0.41159619       0.65592309
Si       5.82537465       3.31392942       0.12622712      -0.25166569      -0.05501248      -0.02801450
Si       7.79733648       4.63685821       0.81255849      -0.28493727      -3.64091134      -1.95557857
Si       7.85974182       4.60567718       3.10529800      -0.19934595      -4.00894328       1.86057580
Si       9.68404385       5.59178963       4.02069801       0.86932706      -0.66555551       0.98689754
Bi       0.29493015      -6.80140034       2.05719623      -3.24926107       0.25200277       7.29002609
17
Lattice="7.6900743505 0.0 0.0 3.9157639056 6.6474467516 0.0 3.918909121 2.2296458282 6.3416858304" Properties=species:S:1:pos:R:3:force:R:3 config_type=Bi_int virial="22.8653101269166 18.555961383821604 12.185365518928707 18.555961383821604 40.792776829226945 -11.756738353018347 12.185365518928707 -11.756738353018347 50.79636645056077" energy=11.327989799999997 pbc="T T T"
Si       1.94949729       1.14873724       0.82854044       1.50879604      -1.15001403       2.86846852
Si       0.10704157      -0.03834020       0.02180664      -1.24918926      -2.70821418       2.06696214
Si       1.99431328       1.02436671       3.20943955      -0.20230231       0.06966164       0.20178650
Si       3.89221837       2.20863484       3.99775129      -1.93109666      -4.72005264      -2.51545313
Si       2.03539752       3.41060228       0.03916049       2.60547289       4.28297092       3.78000332
Si       3.84360774       4.44391443       0.81011100      -0.12114938      -0.33660320      -0.36295615
Si       3.90786514       4.47766031       3.26037346      -6.63001559       3.08829190     -11.67103427
Si       5.80684269       5.53361839       3.98188513       7.23837840      10.05445299      -8.06220139
Si       3.83787372      -0.00918194      -0.03996893       0.09643427      -0.14335824      -0.04053830
Si       5.77708979       1.07563080       0.83769369      -0.15503524      -0.01077841       0.11430577
Si       5.68051943       1.12266689       3.25722352      -0.01574500      -0.12948229      -0.00789669
Si       7.71866188       2.21974539       3.95631461      -0.04486375       0.06712160       0.00475487
Si       5.77552060       3.29183552       0.01904015      -0.01180996       0.06496825      -0.01629745
Si       7.86207322       4.53313127       0.81761709       0.10551067       0.23041104       0.25642934
Si       7.73174233       4.36175264       3.08892773       0.27964574       0.11298408      -0.32838803
Si       9.53752784       5.57373521       3.99611232      -0.40405699       0.21847476      -0.20656219
Bi      -6.75480933      -2.56826584       5.04040173      -1.06897385      -8.99083419      13.91861715
17
Lattice="7.7315269379 0.0 0.0 3.9205380653 6.6745225342 0.0 3.8727605833 2.2238193133 6.3237560534" Properties=species:S:1:pos:R:3:force:R:3 config_type=Bi_int virial="63.3575061281354 -3.015263605616962 2.369304688492007 -3.015263605616962 58.83935677677492 4.6141330162096885 2.369304688492007 4.6141330162096885 8.453940751765911" energy=14.268501869999994 pbc="T T T"
Si       1.99906742       1.04533062       0.82807318       0.07872553      -0.08136978      -0.11662729
Si       0.02427301       0.05518068       0.08427650       0.04048655      -0.02339511       0.01178452
Si       1.85204402       1.10206375       3.13830201       3.82143094       3.70172132      -1.36070869
Si       3.82702815       2.19941726       3.99178364       0.01622992       0.07354849       0.35450527
Si       2.07016530       3.39772372      -0.01565455       0.55831044      -0.02972669       0.39158671
Si       3.85640171       4.39187205       0.83609070      -0.07306721      -0.50960744      -0.13752359
Si       3.88782519       4.37547418       3.11524077      -1.10978278     -18.00043875      -5.78833404
Si       5.76039537       5.47907161       3.91682401      17.90876252      -8.36934908       3.99359161
Si       3.79147645      -0.04408797      -0.03502914      -0.01509952       0.08010006       0.07833573
Si       5.63901298       1.05018959       0.90882722      -0.08387003      -0.01144752      -0.05940285
Si       5.80496855       1.13263305       3.19772365      -1.94972976       1.68570816      -0.62430625
Si       7.73694022       2.25340181       3.90296897      -0.04532878       1.91609749       0.40325369
Si       5.72421512       3.26616585       0.02575539      -0.24333568      -0.03941623       0.15258328
Si       7.82161963       4.43187988       0.77420310       0.00085067       0.01687136       0.01656212
Si       7.86391778       4.43857564       3.12981595       0.29393556      -0.26724225      -0.42682745
Si       9.74514655       5.51040626       4.04090020      -8.02546491      -2.86860530       2.36218972
Bi      -3.77286386      -2.61512668      -2.71696112     -11.17305345      22.72655129       0.74933750
17
Lattice="7.7985348025 0.0 0.0 3.8836300025 6.7014549809 0.0 3.9080751189 2.2616358054 6.337142677" Properties=species:S:1:pos:R:3:force:R:3 config_type=Bi_int virial="40.63859564862973 -17.989033023013153 -10.558051708180262 -17.989033023013153 23.143866876374513 6.171467059710777 -10.558051708180262 6.171467059710777 47.51866476162303" energy=10.850015209999995 pbc="T T T"
Si       1.96387924       1.09809906       0.79774953      -0.64992821      -0.27658421      -0.31472180
Si      -0.08550277       0.02130411       0.03908404      -0.06872661      -0.01976558       0.15483814
Si       1.93791952       1.16248258       3.16899303      -1.14806426      -0.21448063       0.49685240
Si       3.84850407       2.25542197       4.07442389      -2.61861716       1.16213207       7.04198486
Si       1.88595717       3.32478134      -0.09472211      -0.27658883       0.07398539      -0.06811834
Si       3.92718434       4.50514246       0.69060896      -0.23281367       1.01416660      -0.62792739
Si       3.83821326       4.41382643       3.12546024      -0.28365393       1.23272637       0.69028619
Si       5.85163069       5.54093860       3.84183483       0.27329435      -0.10165523       0.02017672
Si       3.85757378      -0.03137788      -0.10031626      -0.23152700      -1.36341495      -1.15513279
Si       5.79565376       1.11314181       0.79011874      12.91228930      -8.28976843     -11.88223347
Si       5.86335819       1.10425000       3.18648461       9.26617674      -5.35990022       7.91741084
Si       7.82414069       2.33476490       3.91274892       0.03479739       0.18588793       0.09741851
Si       5.96945901       3.33460589       0.19603900       1.58435433       0.91542569      -0.95292176
Si       7.87888202       4.59349165       0.76901859       0.06804899       0.27142932       0.04563164
Si       7.79754464       4.41883220       3.05981845      -0.06431996      -0.15451189      -0.12191458
Si       9.68877623       5.62274782       3.95662631      -0.36316062       0.00229876      -0.26334537
Bi       4.44945921       1.97589803       1.92133017     -18.20156086      10.92202900      -1.07828378
17
Lattice="7.7437304014 0.0 0.0 3.9209545362 6.6660062945 0.0 3.9233086361 2.2309800577 6.3634769293" Properties=species:S:1:pos:R:3:force:R:3 config_type=Bi_int virial="26.034755107428346 2.9491939606043163 1.139952099878765 2.9491939606043163 37.3587981961846 -3.005674046922531 1.139952099878765 -3.005674046922531 17.2207855132534" energy=5.9471902000000085 pbc="T T T"
Si       1.93646294       1.11079356       0.77636158      -1.95757330      -0.81478677       1.30355301
Si      -0.03953541       0.01226763      -0.03907874      -0.02254050       0.02457446      -0.34059259
Si       1.97629882       1.13491911       3.20640706       0.16404204       0.12829298       0.08998545
Si       3.91678424       2.29563722       3.97393091       0.00635565      -0.03084635       0.01027157
Si       1.93342435       3.25969386       0.04140939      -3.09099331       1.70785819       0.94991887
Si       3.92735607       4.46503778       0.72432110      -0.13391912       1.50618694       0.75408943
Si       3.83143296       4.45543615       3.19494380      -0.00447921      -0.20132598       0.14851224
Si       5.81673393       5.47765146       3.93614933      -0.44951166       0.23865401      -0.40658183
Si       3.76961600      -0.08817290      -0.05929102      -1.44846852     -10.15137367       1.78952704
Si       5.75914608       1.03107784       0.84655548       2.82554933      -1.62995496       2.49428523
Si       5.83932761       1.01937049       3.11927942      -0.16278605       0.05640489      -0.09218296
Si       7.80980758       2.23880821       3.95073216      -0.05779405      -1.20733320      -0.95687564
Si       5.97651416       3.36830477       0.10401389       3.27892052       2.31247189       0.80280482
Si       7.81398045       4.49991079       0.77753739      -0.14288568       0.48475656       0.08009419
Si       7.77917691       4.43449296       3.05491767       0.02842059       0.04780887      -1.61782648
Si       9.67155363       5.60689256       4.06666536       0.67202619       0.62006198      -0.70651657
Bi       3.98524054       2.01970443      -0.51994656       0.49563708       6.90855016      -4.30246581
17
Lattice="7.7645160132 0.0 0.0 3.8979566203 6.7569469677 0.0 3.8511062407 2.22211601 6.3093705844" Properties=species:S:1:pos:R:3:force:R:3 config_type=Bi_int virial="37.131558384744665 -3.178494857721179 -1.9820538134651267 -3.178494857721179 34.901878364379954 -0.017375417617175426 -1.9820538134651267 -0.017375417617175426 17.623360813789468" energy=6.95118294000001 pbc="T T T"
Si       2.01031151       1.05199310       0.86874076       0.66933907       0.22891701      -0.26840670
Si      -0.03952533      -0.00160158      -0.01919138       0.07090373       0.04487020      -1.65400333
Si       1.85069021       1.09197334       3.12268087       4.04161978       2.13251089       0.72029338
Si       3.78577603       2.14470896       4.01616288      -0.00295544      -0.28045093       0.25258907
Si       1.97777653       3.43272493      -0.07165184      -0.17370842       0.06056460      -0.11353101
Si       3.89753490       4.52783234       0.85121912       0.02627310      -0.83229577      -0.66140826
Si       3.78887334       4.47260401       3.19894050       0.06823340      -4.41219424       0.97181995
Si       5.79518960       5.62868691       4.04400395       1.56352430      -0.63801543       1.08573226
Si       3.92400822       0.08552971      -0.02621990       0.00129590      -0.02416753       0.19920775
Si       5.77323231       1.14121269       0.73435735      -0.97007289       0.67182075      -1.06166438
Si       5.73492719       1.12301937       3.08587930      -8.15706792       5.03233472       1.27692067
Si       7.76520474       2.26696278       3.76223399       0.71231404       3.13868443       1.46197775
Si       5.95971758       3.27763678       0.02676869       0.26216401      -0.11032363       0.13522270
Si       7.81740624       4.55557309       0.77415560       0.00233138       0.00733641      -0.01834775
Si       7.68866869       4.53896575       3.09671198      -0.18590176       0.08838570      -0.22789312
Si       9.72821787       5.56348531       3.92226914      -2.54299002      -2.29665867       2.13856870
Bi      -0.15490093       4.56042753      -3.63290767       4.61469771      -2.81131854      -4.23707769
17
Lattice="7.8104083328 0.0 0.0 3.8956488447 6.648607126 0.0 3.8914713124 2.2339632909 6.388700298" Properties=species:S:1:pos:R:3:force:R:3 config_type=Bi_int virial="60.74991173800328 3.805462553955896 6.0986877680883484 3.805462553955896 12.798964346819293 11.925588392114355 6.0986877680883484 11.925588392114355 47.755097973942426" energy=12.529547730000004 pbc="T T T"
Si       1.93252947       1.03203591       0.76198096      -0.03449502      -0.29659938       0.01329456
Si      -0.08067934      -0.02475928       0.01602706      -0.09869305       0.22471931       0.21463737
Si       1.91306182       1.12054463       3.21631204      -0.89173888       0.63461907      -0.57307762
Si       3.91252348       2.23112712       4.04407611       0.10008340       0.27272962       0.01720718
Si       1.99479343       3.39917755      -0.01553224      -8.50821813      -1.46558994       8.55019630
Si       3.98844400       4.50501749       0.75562529       1.26457465       1.90589318       3.70400149
Si       3.89218575       4.40790599       3.14617225       0.16339124      -0.29749225      -0.10046413
Si       5.79505276       5.55690206       3.97430758     -19.71533657      -2.72685754     -12.29190159
Si       3.85552669      -0.02536644      -0.04703345       0.03626192       0.01747445      -0.05595838
Si       5.82608412       1.15979285       0.77538387       0.00802364       0.04884928      -0.01765828
Si       5.89458983       1.00971014       3.17146515       0.21333093       0.11935521      -0.23519676
Si       7.81844396       2.24043565       3.93205931       0.00059815       0.03928980       0.01142654
Si       5.80842545       3.29088058       0.05121269       1.20196976      -0.27951623       0.88478133
Si       7.75983116       4.53028311       0.84768435      -0.40738063       0.39553854       0.05839498
Si       7.75437732       4.39163167       3.18391081       1.28984485      -4.49296729      -4.81834317
Si       9.64991120       5.51296123       4.05962167       3.20373218      -0.23883036      -1.07534638
Bi       7.40991947       5.85115764       4.94481150      22.17405154       6.13938453       5.71400656
17
Lattice="7.7071533994 0.0 0.0 3.9124786695 6.6858432234 0.0 3.8864892539 2.2395938073 6.3809494255" Properties=species:S:1:pos:R:3:force:R:3 config_type=Bi_int virial="59.57953402868878 6.523164273957631 -5.085482109700888 6.523164273957631 55.8005107981617 1.0491263752035396 -5.085482109700888 1.0491263752035396 8.167665021722936" energy=12.915480369999997 pbc="T T T"
Si       1.98258580       1.05886452       0.84770769       0.04371454      -0.11064983      -0.09881167
Si      -0.06711633      -0.03001493       0.06817578       0.06118116      -0.11720660       0.26175631
Si       1.95258014       1.12168169       3.14242494      -0.50706175      -2.76188222      -0.71904989
Si       3.92151828       2.18708367       4.05302012       4.94327649      -4.70884230       2.26180013
Si       2.01876954       3.36572206      -0.00508163       0.09287310       0.07576029       0.03576280
Si       3.88786020       4.39997118       0.67981663       0.53906826       0.11397925      -0.54792942
Si       3.88559821       4.49457044       3.13481472      18.84358990      10.54728178      -5.23108534
Si       5.76827797       5.50850004       3.91501053      -0.21285262      -0.12512911       0.30365155
Si       3.88073172      -0.00510338      -0.08194731       0.02520291       0.00102314       0.08080926
Si       5.68118249       1.08274508       0.67257232      -0.03391526       0.02022592      -0.15214521
Si       5.80447017       1.11155755       3.29238342       0.05314839       0.05958861      -0.33252652
Si       7.80157180       2.25995574       3.96293900      -2.02559032      -1.31122957       0.69661267
Si       5.82013986       3.42682979       0.07154324      -0.07566347       0.35682893       0.22724665
Si       7.70923716       4.50475250       0.73336909      -0.24244862       0.04294183      -0.27240180
Si       7.77017215       4.51999357       3.21748860      -4.87140402       1.86076784      -0.94376717
Si       9.74846631       5.58341195       4.04773424      -1.22986390      13.35143658       4.58311861
Bi      -5.48927688       3.60929726       3.50233456     -15.40325479     -17.29489453      -0.15304095
17
Lattice="7.7000336656 0.0 0.0 3.8876254576 6.6666728842 0.0 3.91873849 2.2258778788 6.3578775187" Properties=species:S:1:pos:R:3:force:R:3 config_type=Bi_int virial="19.166771438613495 -17.576698881007122 -11.097227057994402 -17.576698881007122 50.83185601067201 -9.55893537671363 -11.097227057994402 -9.55893537671363 58.90011098815492" energy=13.7197496 pbc="T T T"
Si       2.02440244       1.13393243       0.93980734      -0.17178575      -0.13941498       0.16133285
Si      -0.00018133       0.08020191       0.01932430      -0.04034612       0.07113259      -0.02604296
Si       1.84797020       1.09272750       3.15903490       4.84214337       1.47425621      -7.46078916
Si       3.78740764       2.23942189       4.04492359       0.03394109       0.16551799      -0.04978638
Si       1.94173891       3.44704601      -0.04579061       1.52524612      -1.90252617       1.50029132
Si       3.85485311       4.44020086       0.82527245       0.00619912       0.02343403       0.06899529
Si       3.87435989       4.42872665       3.18531729       0.06197924      -0.14949973      -0.12041152
Si       5.71674717       5.58947856       3.94039587       1.74705315      -3.48880015      -2.08542417
Si       3.92847643      -0.00444787      -0.00088535      -2.65206955       8.97293818       8.89234129
Si       5.66916975       1.04195372       0.80330045      -0.21071416       0.08355546      -0.00680819
Si       5.67518937       1.05289619       3.23670719      -0.63101323       0.11097149      -0.61534865
Si       7.78261409       2.27469910       3.93157274      -6.02048254      14.22125150     -10.71126185
Si       5.90630077       3.21962202       0.04319670      -0.11939438      -0.27711016       0.19951243
Si       7.76241310       4.49905340       0.71157049      -2.00981840      -2.04596742       5.58945092
Si       7.72255596       4.48955044       3.22928577       0.22872985       0.08426104       0.33575229
Si       9.65080989       5.59161998       4.02798898      -0.07864873      -0.09234135       0.00546405
Bi       0.67129789       5.18066456      -1.36136031       3.48898091     -17.11165850       4.32273245
17
Lattice="7.7647969019 0.0 0.0 3.8548941782 6.6875671279 0.0 3.8975342559 2.2467078824 6.380929264" Properties=species:S:1:pos:R:3:force:R:3 config_type=Bi_int virial="66.45695436968475 -3.6516150435783654 1.0437885811583976 -3.6516150435783654 56.50502759597193 6.463345726545659 1.0437885811583976 6.463345726545659 8.215671173992813" energy=14.4211952 pbc="T T T"
Si       2.02152798       1.05742208       0.78794793       0.24650765       0.00838117       0.40278850
Si       0.02963420      -0.02423688       0.02526530       8.11512363       1.91800931      -1.35164579
Si       1.93173869       1.16907595       3.17932616      -0.00705853       0.01718186      -0.05930920
Si       3.82408169       2.26368363       4.10370113       0.28828281       0.14840832      -0.27774457
Si       2.00211617       3.35621085      -0.03965340       0.05517731      -1.89133098      -0.37735630
Si       3.94756108       4.43492808       0.83934182       1.54961614      -1.08827841       0.43952528
Si       3.82244054       4.47185907       3.28505776      -0.02580927       0.05273223       0.09144337
Si       5.80954268       5.56555080       3.97150792       0.01870746      -0.08388459      -0.11140068
Si       3.90044255      -0.00817764      -0.00611592     -18.86583068       6.68930517      -2.89809533
Si       5.71854685       1.18306298       0.78658639      -0.55836971      18.90206903       6.13847656
Si       5.75297803       1.12528909       3.18752588       0.00389399       0.23425317       0.10911891
Si       7.81110988       2.24776740       3.93042311      -0.45761036       0.32199270      -0.41861968
Si       5.87120469       3.27171521       0.08849514      -0.23147909      -0.47839016      -0.28007385
Si       7.86119358       4.56265890       0.81487212      -4.31667152      -3.45924893       1.86325879