15
Lattice="7.6136135381 -0.1386369416 -0.1040250732 3.7529239589 6.5730637791 -0.1805700688 3.7405545585 2.1124023372 6.2332427187" Properties=species:S:1:pos:R:3:force:R:3 config_type=Bi_vac_migration virial="6.585858612118734 -3.49184773723462 -1.7564624810478078 -3.49184773723462 7.808194840322971 0.35255245306710936 -1.7564624810478078 0.35255245306710936 13.817754315856472" energy=-4.429794990000005 pbc="T T T"
Si       1.51655044       1.10702677       3.01035803      -0.24416932      -0.12164049      -0.26297407
Si       3.47065513       1.86873489       3.82963732      -0.37859083      -0.37186271      -3.96581949
Si       1.64274724       3.23635356      -0.19128656      -0.22092353      -0.15157718      -0.03512346
Si       3.61769118       4.21798309       0.53092746       0.24493337      -1.69160185       0.82176954
Si       3.72162238       4.12005324       3.13262069      -0.09528463       0.28534975      -0.55736525
Si       5.42180697       5.36859947       3.50433702       0.08006247       0.03808347       0.09194752
Si       3.63212588      -0.25692193      -0.14627565      -0.41409640      -0.19574051       0.08777599
Si       5.47585884       0.78006152       0.56114527      -2.28740473       1.03326582       0.81945102
Si       5.60111211       0.92058437       3.02005340      -0.00019274       0.02353435       0.01821523
Si       7.39825962       2.08503957       3.66629088       0.17517978       0.04284581       0.05736545
Si       5.94269668       3.04165737      -0.08526150      -0.41778228       0.38519915      -0.00883121
Si       7.58058982       4.33281220       0.52160315       0.06857446       0.12507346       0.01271602
Si       7.48225600       4.20676699       2.87284336      -0.00653727       0.00488312      -0.04211413
Si       9.28597912       5.04938459       3.58564703       0.05482696      -0.12603873       0.09166467
Bi       0.03253844       0.06784921      -0.07304621       3.44140469       0.72022653       2.87132217
15
Lattice="7.5083460099 -0.1391271201 -0.1027058872 3.7863280161 6.5655552411 -0.178326225 3.7624899585 2.1344870799 6.1554067099" Properties=species:S:1:pos:R:3:force:R:3 config_type=Bi_vac_migration virial="-0.0908682679118229 -2.3004285368489636 -2.1131394033679047 -2.3004285368489636 3.474328908487413 -1.4801581420053225 -2.1131394033679047 -1.4801581420053225 5.7997101437167515" energy=-5.700744239999992 pbc="T T T"
Si       1.45823816       0.92205414       2.98979085      -0.08689484      -0.11779426      -0.26497642
Si       3.68763435       1.82420252       3.61314085       0.15711931       0.22248279      -0.30818030
Si       1.83884037       3.31437380      -0.34938991      -0.38496922      -0.31875935      -0.13825313
Si       3.73066153       4.12084951       0.42138226       0.18716505      -0.09590808       0.34951754
Si       3.65442989       4.22414393       2.93152673       0.00670739      -0.09143508      -0.09476344
Si       5.23828473       5.26264596       3.44350835       0.01304501      -0.04276134       0.15702638
Si       3.59938844      -0.14851928      -0.38807612      -0.50217129      -0.15312524      -0.05663251
Si       5.22037632       0.85707698       0.40337195       0.40634302       0.06549593       0.04478800
Si       5.78002144       1.06396079       2.82654249      -0.14342046       0.12124463       0.11759255
Si       7.30458036       1.79520491       3.37911757      -0.09319879       0.02600601       0.13368156
Si       5.74371734       3.07056745      -0.04837661      -0.13056688      -0.00050556       0.06369275
Si       7.38828259       4.26538743       0.29103962       0.07529770      -0.00897523       0.03159493
Si       7.41047337       4.28642674       2.74696163      -0.03687802      -0.00266460      -0.01379145
Si       9.40524098       5.13393108       3.62719870       0.06017670       0.02019826      -0.03285189
Bi       0.45390622       0.21445147       0.12846072       0.47224531       0.37650112       0.01155542
15
Lattice="7.5353879608 -0.1399782268 -0.102728088 3.7645807226 6.5387277531 -0.1804049771 3.7234822681 2.1010234057 6.1959343542" Properties=species:S:1:pos:R:3:force:R:3 config_type=Bi_vac_migration virial="-0.46685454163549167 -2.9920324790352097 -1.8728754139087762 -2.9920324790352097 3.8652545517714056 -0.33206249211609684 -1.8728754139087762 -0.33206249211609684 7.038690891205282" energy=-5.768463780000005 pbc="T T T"
Si       1.72403786       0.90389346       2.95423807      -0.18383173      -0.18917069       0.09798341
Si       3.49269339       1.94408630       3.79633939       0.22796808       0.14826060      -0.80467514
Si       1.75344709       3.18179463       0.00798903      -0.39327264      -0.12207627      -0.19547324
Si       3.62212335       4.12329953       0.58943862       0.21848850       0.07354700       0.19344515
Si       3.67411419       4.15879805       2.99551279      -0.08376492      -0.10347240      -0.04571660
Si       5.43762375       5.40014008       3.46106953       0.04568705       0.02245880       0.17179527
Si       3.54660081      -0.26245162      -0.19761635      -0.26070758      -0.19044216      -0.22134746
Si       5.32575368       0.97192393       0.58936211       0.18810681       0.02430389       0.10438040
Si       5.68955722       0.91723506       2.87953772      -0.22344219       0.10267325       0.15477500
Si       7.31817002       1.96362775       3.41082965      -0.04081177       0.03337467       0.16748046
Si       5.65741353       3.18436903       0.10312757      -0.18559444       0.01146769       0.01256918
Si       7.49760523       4.06766851       0.49740678       0.07150867       0.09387839       0.09251203
Si       7.46699391       4.30822059       2.99523358      -0.01208176      -0.00667716      -0.08804757
Si       9.17858309       5.25305156       3.71909520       0.06039745       0.00321216       0.01025890
Bi       0.47111052       0.27492663       0.16355947       0.57135048       0.09866223       0.35006019
15
Lattice="7.5944799862 -0.1383928257 -0.1022498316 3.7929499254 6.6373310881 -0.1784243542 3.7477721292 2.1289952832 6.224820471" Properties=species:S:1:pos:R:3:force:R:3 config_type=Bi_vac_migration virial="1.1107029044239134 -2.39015206662328 -0.4426085774200157 -2.39015206662328 3.721082185678837 -0.26421716732928147 -0.4426085774200157 -0.26421716732928147 9.904589914549401" energy=-5.428994189999997 pbc="T T T"
Si       1.64782756       0.90116532       2.81666633      -0.05864954      -0.29793077       0.42639341
Si       3.56372507       1.98072554       4.02596027       0.09718618       0.11950080      -2.14956222
Si       1.65693840       3.20545850      -0.01102249      -0.22490492       0.05312178      -0.37284320
Si       3.66166922       4.21149275       0.45640301       0.20988851      -0.19797713       0.43803258
Si       3.76867087       4.17740361       3.02714206      -0.00164149      -0.02279932      -0.13105779
Si       5.52130615       5.30430461       3.30131852       0.01039237      -0.11391715       0.37759195
Si       3.82403994      -0.08849158      -0.26422108      -0.49282278      -0.16539855      -0.15846055
Si       5.49077712       0.89354962       0.52163399      -0.13656228       0.30252426       0.39941384
Si       5.72527318       0.95301764       2.96914752      -0.28543548       0.09470373       0.08980660
Si       7.54336738       1.97714736       3.62755028       0.04076047       0.03641618       0.16813362
Si       5.74971146       3.17664287      -0.29987245      -0.24584653       0.07785700       0.05011000
Si       7.48142505       4.47916369       0.34770905       0.16678742      -0.06116402       0.04629890
Si       7.55258876       4.40946141       2.88414249      -0.04759088       0.06780090      -0.05901216
Si       9.25210647       5.36723438       3.66901501       0.07528503      -0.08423364      -0.00398354
Bi       0.52730759       0.30723779       0.21968310       0.89315392       0.19149596       0.87913859
15
Lattice="7.5462341095 -0.1398623868 -0.1030964797 3.7494768863 6.5844647186 -0.18044236 3.7584641364 2.1115027201 6.1695621604" Properties=species:S:1:pos:R:3:force:R:3 config_type=Bi_vac_migration virial="-0.539465298131125 -2.0864465292458627 -1.5980004353580035 -2.0864465292458627 4.411891130435624 -0.3508154010298121 -1.5980004353580035 -0.3508154010298121 6.825352626145319" energy=-5.800157609999999 pbc="T T T"
Si       1.71071286       0.95913552       2.92235034      -0.31663821      -0.04883332       0.26337509
Si       3.71040529       1.82614477       3.85600035       0.21876052       0.06780298      -0.48597071
Si       1.76605470       3.18995970      -0.26358003      -0.35686672      -0.24400326      -0.21523671
Si       3.59191897       4.16432478       0.52751510       0.23537136      -0.67293398       0.56522122
Si       3.74595505       3.94470337       2.97459457      -0.14169594       0.08690353      -0.28440796
Si       5.51268602       5.36457282       3.62403424       0.12104831       0.02603623       0.26248339
Si       3.58109531      -0.34380086      -0.17329262      -0.27904197      -0.26865306      -0.19132808
Si       5.32138803       0.90432003       0.50909498       0.36091293       0.03105996       0.23432714
Si       5.60948659       0.98245322       3.07689296       0.00767334      -0.05759900      -0.14990787
Si       7.50124728       1.95290648       3.38082257      -0.05080048       0.06000525       0.30887711
Si       5.60373186       2.85885993      -0.01326713      -0.21926865       0.22790981      -0.17119289
Si       7.51532671       4.23172708       0.50709338       0.07984892       0.04524993       0.06936797
Si       7.49341632       4.35760494       2.92631161       0.01580066       0.02565261      -0.11015987
Si       9.48940799       5.33473204       3.47403384       0.01077644      -0.02757105       0.25377422
Bi       0.62847034       0.15204434       0.37623918       0.31411947       0.74897340      -0.34922207
15
Lattice="7.5973652815 -0.1386453516 -0.1025618237 3.7816603849 6.5640943866 -0.1789998454 3.752233949 2.1003979379 6.2222410909" Properties=species:S:1:pos:R:3:force:R:3 config_type=Bi_vac_migration virial="1.3612804739129736 -3.6323082729337184 -1.685679857192186 -3.6323082729337184 3.7078200700473998 -0.7661743141851431 -1.685679857192186 -0.7661743141851431 5.713331148195333" energy=-5.804984570000002 pbc="T T T"
Si       1.90843333       0.81427588       2.97301662      -0.22274613      -0.17809116       0.15406107
Si       3.62892410       1.73692272       3.92817184       0.18714869       0.20420281      -0.71296288
Si       1.78473181       3.22207779      -0.21249208      -0.34660336      -0.07434169      -0.23413273
Si       3.72342418       4.28291439       0.61722646       0.30598349      -0.24571677       0.40914999
Si       3.51603300       4.20938791       3.05173537      -0.05739198      -0.11821666      -0.18335486
Si       5.50346151       5.41754251       3.73753598       0.13349387       0.06208780       0.03833405
Si       3.67815105      -0.17148841      -0.13257449      -0.22162564      -0.16239048      -0.09882095
Si       5.48087719       0.81176300       0.70371693      -0.26433716       0.33954927       0.23216940
Si       5.75606600       0.90150135       3.02776935      -0.13308955       0.11508644       0.12259949
Si       7.15819612       1.97787776       3.73851607       0.00999604      -0.02233364      -0.05280916
Si       5.66327215       3.01278734      -0.02445271      -0.34737438       0.15179794      -0.00056841
Si       7.47123915       4.27959860       0.29980453       0.11796537       0.11128057       0.05891658
Si       7.66022382       4.27116111       2.97527224      -0.04514034       0.00698479      -0.05378437
Si       9.26918433       4.93531525       3.52662302       0.02588563      -0.01677397       0.05965130
Bi       0.51007644       0.45454930       0.24649108       0.85783545      -0.17312525       0.26155146
15
Lattice="7.6186283303 -0.138107094 -0.102607892 3.7668206821 6.559539671 -0.1796341451 3.7618346201 2.1358533757 6.2074208902" Properties=species:S:1:pos:R:3:force:R:3 config_type=Bi_vac_migration virial="-1.3046519052356302 -2.804286950426926 -1.4111449636145603 -2.804286950426926 4.94254341900349 -1.1544646809846344 -1.4111449636145603 -1.1544646809846344 4.281091258538858" energy=-5.787365930000007 pbc="T T T"
Si       1.74825875       1.01855354       3.09102667      -0.40552799      -0.28674441      -0.20815769
Si       3.39743067       1.91978995       3.79451675       0.34620738       0.25118401      -0.01667916
Si       1.69386148       3.20153750      -0.20183194      -0.31979617      -0.09027289      -0.19886366
Si       3.78213449       4.23056536       0.50561164       0.10173322      -0.76636441       0.36985145
Si       3.53415490       4.08849923       3.10048363      -0.00665598       0.06028198      -0.26566999
Si       5.50416621       5.21025532       3.45603761       0.07882753       0.00117379       0.26192954
Si       3.63762489      -0.30743955      -0.24001747      -0.35820180      -0.09455206      -0.06892469
Si       5.35792061       0.74553577       0.71137812       0.45842769       0.22155885       0.18984810
Si       5.45410852       0.86258117       3.16736206      -0.05577239      -0.04698260      -0.23525652
Si       7.42891419       2.02442124       3.62864785       0.09863051       0.04270525       0.05758030
Si       5.70754597       3.07865645      -0.10940187      -0.14691506      -0.04511380       0.01897149
Si       7.32804277       4.20241593       0.31180657       0.18782180      -0.12364319       0.03295758
Si       7.54008231       4.05065874       2.88525234      -0.02835407       0.00972477      -0.04981602
Si       9.54320642       5.08657844       3.61668993       0.00192908      -0.01325278       0.05861118
Bi       0.64958580       0.26573401       0.26603276       0.04764627       0.88029751       0.05361810
15
Lattice="7.5238814222 -0.1387007296 -0.102475603 3.7470758853 6.5175154403 -0.1780320011 3.6970509366 2.1063624226 6.1416406962" Properties=species:S:1:pos:R:3:force:R:3 config_type=Bi_vac_migration virial="-0.559070993314279 -2.5946768774891495 -2.158786400860248 -2.5946768774891495 2.437920090038527 -0.9108342823914839 -2.158786400860248 -0.9108342823914839 6.900216998700207" energy=-5.671441310000006 pbc="T T T"
Si       1.49824389       0.93711205       2.96890777      -0.08472700      -0.26525140       0.03694526
Si       3.48075238       1.98019720       3.80168354       0.16836450       0.11730820      -0.92398491
Si       1.67749923       3.23861802      -0.05161897      -0.45089234      -0.17691122      -0.19477187
Si       3.41980902       4.02932657       0.34207728       0.43650619       0.25641821       0.17986863
Si       3.65357195       4.23753556       2.77426094      -0.03175157      -0.06639167       0.06760703
Si       5.34567032       5.17815521       3.42491411       0.04416697       0.01172891       0.07707338
Si       3.76024396      -0.26394512      -0.40540846      -0.54774906      -0.04187666       0.02667345
Si       5.35617997       0.76335420       0.57370026       0.21954526       0.16948398       0.26179611
Si       5.60550664       0.95827082       2.89539632      -0.24073189      -0.02497816       0.05443266
Si       7.34304363       1.90720028       3.55436140       0.09245455       0.03427617       0.16484128
Si       5.70505204       3.16762885      -0.10582208      -0.16806816      -0.01462642      -0.02086407
Si       7.70737000       4.28226682       0.64723050       0.06524066       0.05864295       0.09007918
Si       7.51963640       4.29526202       2.84091540       0.00220970      -0.02015064      -0.01685921
Si       9.23484571       4.93877502       3.42434603       0.03266135       0.06525400      -0.01083446
Bi       0.59337600       0.37379435       0.21551516       0.46277084      -0.10292623       0.20799755
15
Lattice="7.5202798251 -0.1386562917 -0.1035638384 3.7838075258 6.5100535606 -0.1802245273 3.7111551554 2.095133986 6.2180523117" Properties=species:S:1:pos:R:3:force:R:3 config_type=Bi_vac_migration virial="-0.7875467653654198 -2.247632312975484 -1.3430089573634394 -2.247632312975484 0.8562171200689708 0.26089109058251303 -1.3430089573634394 0.26089109058251303 7.67438220075096" energy=-5.624723630000005 pbc="T T T"
Si       1.59609140       0.91396938       2.84905223      -0.13263521      -0.05955400       0.16655776
Si       3.55421312       1.94808670       3.89747605       0.02972993      -0.11670950      -0.96783154
Si       1.81688780       3.36292901      -0.28822174      -0.57006066      -0.52361448      -0.21424183
Si       3.50084386       3.92912433       0.62060049       0.44761672       0.55029411       0.08428395
Si       3.64233130       4.19997094       2.87207554      -0.07834650      -0.06262234      -0.03970096
Si       5.30989206       5.31622313       3.58144118       0.08100054       0.08094693       0.11179739
Si       3.63557036      -0.30769902      -0.25169231      -0.41057037      -0.08934668      -0.22799237
Si       5.23862844       0.64736633       0.66432956       0.36364660       0.02512193       0.18336952
Si       5.59242218       0.80503762       3.03763244      -0.10909634       0.06383796       0.01491774
Si       7.34535040       1.76049030       3.43757390      -0.04702240       0.07688803       0.29937223
Si       5.73236453       3.01907700      -0.06362277      -0.14916029       0.08584748      -0.03851110
Si       7.76213782       4.37939364       0.46752161       0.02707969       0.05109566       0.10112922
Si       7.43092047       4.15144010       2.88678668      -0.00445312      -0.01656752      -0.08456374
Si       9.22854449       5.02498174       3.43311266       0.03941557       0.01982712       0.11154861
Bi       0.58137999       0.43609485       0.18562635       0.51285585      -0.08544472       0.49986514
15
Lattice="7.5415878928 -0.1403988256 -0.1023768114 3.7759415597 6.573709997 -0.1794155023 3.6921375428 2.1315143638 6.1938570262" Properties=species:S:1:pos:R:3:force:R:3 config_type=Bi_vac_migration virial="0.1729328081962329 -2.6155173858575793 -1.7450054468633347 -2.6155173858575793 4.36322025906529 -0.6547655523987679 -1.7450054468633347 -0.6547655523987679 7.662503152689262" energy=-5.655725950000004 pbc="T T T"
Si       1.58770752       0.90293338       2.87771353      -0.06823419      -0.04304000       1.09972157
Si       3.36502982       1.89951709       3.76924917       0.33470130       0.24747089      -0.21372240
Si       1.64298011       3.08130818      -0.13455701      -0.19672639       0.11353463      -0.31687806
Si       3.60820398       4.22511819       0.39233527       0.30181513      -0.36130108       0.34467166
Si       3.61074641       4.26275176       3.12767811      -0.08037008      -0.05953091      -0.10872733
Si       5.30657350       5.32985345       3.62996069      -0.02542274      -0.00924494       0.16783773
Si       3.71749138      -0.11003161       0.03269827      -0.18210206      -0.51099749      -0.49544915
Si       5.53515195       1.00350235       0.72726247       0.15414411       0.07127437       0.12665897
Si       5.62001203       1.02161782       2.81561609      -0.10623515       0.17346950       0.18501026
Si       7.18909276       2.00501434       3.41155651      -0.10624294       0.09084854       0.37822062
Si       5.71927384       3.09226829      -0.37295395      -0.25122305       0.05674750      -0.02814881
Si       7.73851209       4.15147443       0.31316936      -0.02724528       0.32910288       0.13833691
Si       7.45584472       4.19733726       2.88228870       0.04414648      -0.05342771      -0.10432852
Si       9.11851042       5.21010557       3.55671842       0.07803901      -0.04663647       0.03077211
Bi       0.78684606       0.32528681       0.39973465       0.13095585       0.00173030      -1.20397557
15
Lattice="7.5016557587 -0.1401221721 -0.1039996201 3.7376171721 6.6246541804 -0.1800857429 3.6988074339 2.1049255283 6.2100101909" Properties=species:S:1:pos:R:3:force:R:3 config_type=Bi_vac_migration virial="-0.5388354936885094 -2.786116882394973 -1.2498044949098794 -2.786116882394973 3.958061245269329 -0.8783201214354204 -1.2498044949098794 -0.8783201214354204 7.036763913140278" energy=-5.739602260000012 pbc="T T T"
Si       1.50925789       0.84250386       2.95516019      -0.11273478      -0.08381446       0.16223955
Si       3.44522249       1.93352589       3.88701974       0.20940352       0.25043870      -1.13491242
Si       1.81627036       3.29153683      -0.17962326      -0.47235523      -0.20538942      -0.23335250
Si       3.61662117       4.29583209       0.50613876       0.26039304      -0.22095320       0.33490459
Si       3.75847231       4.36001434       2.92448389      -0.04455387      -0.18197004       0.12622605
Si       5.45103402       5.31299700       3.45384253       0.05363361      -0.10851188       0.19642734
Si       3.63900329      -0.13307785      -0.20696719      -0.30485149      -0.32173169      -0.25389612
Si       5.32524563       0.78542632       0.68821956       0.24063783       0.23142967       0.09602299
Si       5.64228922       1.06985213       2.88503824      -0.18692727      -0.00476986       0.22963616
Si       7.39624243       1.75661159       3.51170697      -0.11197974       0.10212541       0.24315398
Si       5.68022403       3.07628061      -0.13229185      -0.12259265       0.01240181       0.01525220
Si       7.34173310       4.31445267       0.36050068       0.14926320       0.01662737       0.05132020
Si       7.24009765       4.29442585       3.01704691      -0.02817961       0.03353366      -0.06927220
Si       9.12232416       5.02788316       3.66103579       0.05442338       0.07629871      -0.04126063
Bi       0.64531564       0.33050845       0.18281560       0.41642006       0.40428526       0.27751080
15
Lattice="7.6007665502 -0.138574335 -0.10216725 3.7849978961 6.542746406 -0.1797490055 3.736132802 2.1072875628 6.1492438459" Properties=species:S:1:pos:R:3:force:R:3 config_type=Bi_vac_migration virial="7.9612817116466195 -3.4797460575601122 -2.3956674497156825 -3.4797460575601122 10.06043383896148 -0.35446675772210323 -2.3956674497156825 -0.35446675772210323 8.40188107648981" energy=-4.699008599999999 pbc="T T T"
Si       1.55267297       0.83463368       3.03034761      -0.31153510      -0.21527771      -0.24785660
Si       3.56853717       1.92372676       3.70935862       0.12542562       0.07608606      -2.33821802
Si       1.88295661       3.14622694      -0.15080651      -0.35536465      -0.36885754      -0.13676191
Si       3.69395417       4.14219806       0.52143528       0.05598082      -2.25979520       0.66886073
Si       3.60582516       4.06452531       2.74475763      -0.17069022      -0.03504779       0.31258827
Si       5.48781787       5.39373265       3.40315424       0.13333561       0.03544766       0.12264154
Si       3.64354637      -0.28196278      -0.31379288      -0.33005573      -0.05533620      -0.10828670
Si       5.54928629       0.81838375       0.61230986      -2.57624324       1.21651226       0.64274886
Si       5.54591158       0.90720983       2.65331639      -0.33464449       0.03579296       0.59803495
Si       7.41445753       1.94743948       3.72676032       0.09762677       0.03966815       0.16802360
Si       5.85174657       3.06114034      -0.06012060      -0.13689380       0.16925914      -0.03678174
Si       7.54994173       4.49871852       0.39717405       0.13672279       0.10028376       0.03567173
Si       7.34058432       4.15593011       2.76213524       0.01671385       0.01580520       0.00075934
Si       9.35868527       5.19452335       3.70013047       0.03259096      -0.04093611      -0.15611539
Bi       0.06513641      -0.01704503       0.06028560       3.61703082       1.28639540       0.47469136
15
Lattice="7.515169781 -0.1378618185 -0.1033755397 3.7628688327 6.5285288679 -0.1794738641 3.7347496234 2.1258776898 6.2359197475" Properties=species:S:1:pos:R:3:force:R:3 config_type=Bi_vac_migration virial="2.4503505415640063 -3.3763483850916916 -0.7837380858822502 -3.3763483850916916 4.57959434901396 0.1871583366786549 -0.7837380858822502 0.1871583366786549 7.8135240849264145" energy=-5.56880889 pbc="T T T"
Si       1.68631605       1.06431394       2.97447464       0.01984294      -0.06174246       1.30068880
Si       3.31433789       1.88986134       3.81956208       0.31432372       0.21534968       0.06183849
Si       1.57166723       3.26551810      -0.13907079      -0.12398392      -0.11753012      -0.23359015
Si       3.54053665       4.31743548       0.44839967       0.44412706      -0.34584051       0.18332253
Si       3.55313838       4.17477049       3.08460590      -0.07576700      -0.07088441      -0.09244498
Si       5.43352465       5.29721274       3.57893119       0.03452661       0.09965543       0.15984266
Si       3.49045804      -0.07884501      -0.23645676       0.29236705      -0.58228135      -0.35629577
Si       5.59794154       0.82068890       0.78328797      -0.32461795       0.37942729       0.22748080
Si       5.48457744       0.84291634       2.96110286      -0.07724106       0.04756772       0.09110642
Si       7.07351763       1.85343415       3.68874949       0.07163857       0.13084020       0.13397426
Si       5.73464297       3.10621670      -0.09450438      -0.27739322       0.15625668      -0.04205352
Si       7.68424811       4.09653098       0.34822083      -0.20139535       0.52909400       0.01906058
Si       7.42470394       4.17444844       2.76524956      -0.02112493      -0.06734338       0.01541197
Si       9.19585123       5.16984607       3.79886530       0.07322213      -0.02886159       0.03131782
Bi       0.89580605       0.55039981       0.56437434      -0.14852463      -0.28370719      -1.49965991
15
Lattice="7.5914098121 -0.1402094527 -0.1026946543 3.7893660825 6.5118970779 -0.1794592699 3.7225861401 2.1269169359 6.1988004533" Properties=species:S:1:pos:R:3:force:R:3 config_type=Bi_vac_migration virial="-1.1544030532855167 -3.551149988188671 -2.0915489182225233 -3.551149988188671 3.287608301548179 -1.2291303845263446 -2.0915489182225233 -1.2291303845263446 5.918061071050339" energy=-5.969136169999999 pbc="T T T"
Si       1.73956178       0.85610621       2.96831263      -0.25324819      -0.22532682       0.27418075
Si       3.50680819       2.02043519       3.81403993       0.22106406       0.23871681      -0.24987744
Si       1.67698719       3.27429007      -0.05006742      -0.23702972      -0.22733847      -0.13480665
Si       3.71841389       4.10453505       0.45728400       0.38629700       0.04750331       0.21762681
Si       3.77447673       4.12565860       3.08857793      -0.08527975      -0.02196016      -0.17002624
Si       5.40226638       5.33162942       3.73327689       0.06921264       0.15566764      -0.02878711
Si       3.76590058      -0.17984535      -0.20199251      -0.30860985      -0.14888196      -0.25635442
Si       5.52468483       0.81043521       0.76944298       0.31673041       0.06379923       0.13458926
Si       5.54932884       1.11420489       2.90467998      -0.00757964      -0.00262681      -0.01884929
Si       7.22895436       1.97462457       3.54590979       0.16884514      -0.01027073       0.07370352
Si       5.79665588       3.01227252      -0.12505212      -0.23437912       0.03524452      -0.03142214
Si       7.64585562       4.16776827       0.43543287       0.10256061       0.13757086      -0.02923162
Si       7.63342088       4.26116111       2.94885730      -0.05765133      -0.03525072       0.00826934
Si       9.40049784       5.10548416       3.72764444       0.06124772       0.02757994       0.01788791
Bi       0.93061067       0.40767153       0.26908479      -0.14217998      -0.03442665       0.19309731
15
Lattice="7.5975312172 -0.1382179899 -0.1032262243 3.7818487998 6.602244996 -0.1784129586 3.7130638835 2.1208235152 6.2563140475" Properties=species:S:1:pos:R:3:force:R:3 config_type=Bi_vac_migration virial="2.238292172230956 -3.329250755319551 -2.0953246761945614 -3.329250755319551 1.9873445923865782 -0.919697986045878 -2.0953246761945614 -0.919697986045878 5.582528976116003" energy=-5.667289400000001 pbc="T T T"
Si       1.77753911       0.94121198       3.11079631      -0.19025103      -0.03507089       0.08452691
Si       3.54965681       1.82963989       4.00705085       0.30672205       0.20702853      -0.43901460
Si       1.84082177       3.28510130      -0.22774135      -0.50032371      -0.12974995      -0.30973670
Si       3.59915375       4.26239406       0.46332102       0.33385813       0.00522080       0.31663510
Si       3.60364545       4.19643345       3.03591101      -0.02188032       0.00220438       0.00628981
Si       5.37753266       5.39431758       3.31916724       0.04110326      -0.16711913       0.48733008
Si       3.54153734      -0.17232311      -0.06519673       0.64354982      -0.48121154      -0.44712414
Si       5.50105530       0.75602714       0.56589907       0.22059556       0.35587804       0.28971150
Si       5.62643958       1.04504568       2.85042173      -0.12771560      -0.07147689       0.04353995
Si       7.36836539       1.97971278       3.65242384      -0.01589374       0.01205577       0.12446215
Si       5.55313134       3.14399893       0.02745505      -0.07189670      -0.15151920      -0.12610751
Si       7.57127355       4.46510049       0.41397774       0.23777253      -0.22816862       0.10765014
Si       7.54332988       4.11314629       2.93884546      -0.01431841       0.07447033      -0.08804082
Si       9.35179067       5.18781390       3.67338052       0.04047719       0.05592333       0.07192445
Bi       0.97464702       0.46394242       0.37490087      -0.88179901       0.55153504      -0.12204632
15