65
Lattice="10.8932875034 0.0 0.0 0.0 10.946765536 0.0 0.0 0.0 10.8848415654" Properties=species:S:1:pos:R:3:force:R:3 config_type=Bi_disordered virial="6.051061616563217 0.454598156258303 1.3763921312894811 0.454598156258303 9.449760125888822 -1.3250488292368265 1.3763921312894811 -1.3250488292368265 6.248543275425476" energy=-3.6165953799999784 pbc="T T T"
Si       1.88656302       1.81968306       0.22437660      -0.05148895       0.03882094      -0.01711421
Si       0.56756737       3.37392061       1.96813137       0.02231231       0.01051330      -0.02303266
Si       6.21499812       1.81331013       1.71623769      -0.06237932       0.01967188       0.01479471
Si       3.77581962       0.63460088       1.62759859       0.09899662       0.04860704      -0.49214821
Si       9.47305620       3.25549631       0.44232232      -0.04457639      -0.01683618       0.01244769
Si       8.70473658       0.93504338       0.99714227       0.01656179       0.01143372      -0.01340111
Si       1.42734737       6.43333417       2.73989379       0.02728830      -0.10824528      -0.06267943
Si       3.01041991       4.31935673       2.11797362      -0.02890645       0.07138420      -0.03346202
Si       4.39134548       4.86422928       0.24694909       0.03004122       0.05754077       0.02122227
Si       4.15866350       6.65980755       3.31281685       0.00578928       0.12562295      -0.03278459
Si       5.85194505       6.42415073       1.66821375      -0.03606864      -0.05831705      -0.01619322
Si       7.63191628       4.39336711       1.75681136       0.07906222       0.00974500       0.00475045
Si       9.96131070       5.39817009       2.56896151       0.04178196       0.00545202      -0.02554854
Si       8.46887822       7.11376756       1.01692031      -0.00162544      -0.00980280       0.04158209
Si       1.73372708       9.91202287       2.66201895      -0.35891312      -0.01161670      -0.30735460
Si       2.55997483       7.92373822       1.02047127      -0.00150598      -0.02722873       0.02311791
Si       4.58581604       9.16626484       2.42642973       0.08440967      -0.20427629      -0.08741820
Si       6.90999938       9.90703597       0.67909461      -0.01019875      -0.02023634       0.03730871
Si      10.01972997      10.09861392       2.22143116      -0.08351804      -0.03360882       0.00304266
Si      10.64112781       8.45723907       0.56923028       0.04071926       0.01577741      -0.04615225
Si       7.89920815       8.72904841       2.68932381       0.12588790      -0.04300628      -0.13699199
Si       1.61837173       2.94934433       4.19050990       0.01904959       0.05729024       0.00500012
Si       5.24227556       1.46172301       5.99849785       0.78628364       0.61053468       0.69910252
Si       6.61049306       0.42599002       3.96431620       0.33883020       0.03494890      -0.05295450
Si       3.92536181       2.02872311       3.82700681       0.27958470       2.10968195      -0.89981803
Si       7.58938321       3.07229154       4.23682185       0.09350560       0.03772458      -0.07247309
Si       9.13932955       0.72776666       4.11461386      -0.01463437       0.00923222      -0.00239540
Si      10.66393776       2.09915344       5.67217720       0.01503594      -0.00864291      -0.00496809
Si       8.35381809       3.38764036       6.61289051      -0.03192647      -0.00848569       0.06961340
Si       0.10689220       4.65773574       6.43444200       0.03819850      -0.01013951       0.00848921
Si       2.08644040       5.41573807       5.16753470      -0.01063830       0.02842131       0.02311538
Si       5.50097263       3.93409966       3.78308573      -0.01297760      -0.09751980      -0.06426847
Si       4.55165546       5.48179664       5.57575179       0.02246252      -0.06161099       0.00892846
Si       4.69813849       3.63249921       7.17760474      -0.04089445       0.05357173       0.03898523
Si       9.10324296       5.53071133       4.91027152      -0.04549979       0.00484872      -0.01557568
Si       0.78300720       8.19803846       4.30060576      -0.14207888      -0.21158477      -0.06834704
Si       1.89147419       8.10910749       6.38666192      -0.07201112      -0.00861890      -0.01931655
Si      -0.06852307       9.87879835       7.17554366      -0.04195432       0.02965517       0.01727558
Si       4.49234928       8.06077171       6.38616253       0.09841728      -0.11819299       0.03367459
Si       5.91816775       8.81089165       4.39098075       0.16385262      -0.09100956       0.04764103
Si       9.21331539       8.04397957       4.72579697      -0.04175827      -0.00182892       0.02409822
Si       8.91650387       9.93091694       5.90949570      -0.00314935      -0.00527942       0.01415829
Si       3.37700578       2.15866759       9.21348120       0.00591703      -0.02004450       0.01383523
Si       0.46741210       1.69626183       7.89010911      -0.01848511      -0.00828435       0.00554673
Si       2.36341067       0.16101443       8.06194848      -0.03824304       0.07567551      -0.12464538
Si       0.58032634       3.58118240       9.62858263       0.01923310      -0.00204533      -0.01143413
Si       5.22561990       2.73155169      10.58158094       0.01299499       0.01390942      -0.02336323
Si       6.76001688       2.83153385       8.40749825       0.00439012      -0.01490764      -0.02590998
Si      10.39130859       0.10326650       9.64382442      -0.02984199       0.00235543       0.02167311
Si       7.65203231       0.60920401       9.36184308      -0.03374020       0.00042816       0.02597062
Si       2.88642451       6.14095266       9.75364169      -0.00581032      -0.01068232      -0.02191211
Si       2.40156747       4.48726265       8.16367848      -0.00932810       0.03582540      -0.00406286
Si       6.97141498       4.88394250      10.00552483      -0.02030018      -0.00536743      -0.00304585
Si       4.97889074       6.32374569       8.47748230       0.00730060      -0.06792109       0.05857130
Si      10.14574151       5.60981841       8.44889369      -0.00577547      -0.00336633       0.01195195
Si       7.80377511       5.73404798       7.83879129      -0.01288130      -0.02615914      -0.02567560
Si       1.76154662       8.06183804       8.79828869       0.00481336       0.06069041       0.03038782
Si       1.78286795      10.17319333      10.40534237      -0.01592434       0.01813325      -0.05030386
Si       5.25043789       7.99017005      10.75386165       0.00538250      -0.05576006      -0.07220943
Si       4.84764232      10.24767891       7.46031474       0.16830176      -0.05053897       0.45469161
Si       4.42813907      10.30828808      10.25336056       0.01780073       0.02548278      -0.03666356
Si       7.14159676       9.80614956       7.82449657       0.05075161       0.00699880      -0.05444362
Si       7.46850280       7.94290520       9.38104556      -0.02605995      -0.03510149       0.02749006
Si      10.01423157       8.20327909       9.11234236       0.03015350       0.03169422       0.03420133
Bi      -7.48374515      10.68597237       4.76013119      -1.40201645      -2.20540551       1.11539925
65
Lattice="11.0146741622 0.0 0.0 0.0 11.0079020231 0.0 0.0 0.0 10.9844996524" Properties=species:S:1:pos:R:3:force:R:3 config_type=Bi_disordered virial="16.326767549099948 12.93908043528458 -0.8823647969495738 12.93908043528458 30.46547838011533 4.632260510232915 -0.8823647969495738 4.632260510232915 15.644108036250152" energy=1.2538202900000215 pbc="T T T"
Si       2.20751825       0.19552425       2.68171193       0.10037144      -0.02546250      -0.01293423
Si       4.91176999       2.73799371       1.19738154       0.03543643      -0.05180245       0.00494630
Si       6.60637489       1.85984596       3.24928167      -0.63157219       0.11598118      -0.84164899
Si       4.21055468       0.43245746       0.99660163      -0.03959158      -0.01670777       0.06658512
Si       9.10704345       1.04951028       3.30990213       1.19553248      -0.80857052      -3.21157727
Si      10.63981677       1.81991020       1.37299417       0.03271112       0.04308227       0.01334552
Si       8.55614593       2.64893161       0.17468030       0.03775770      -0.00145130      -0.02446850
Si       1.75455143       6.06041839       2.32796268      -0.02948419      -0.00973194       0.03867315
Si       3.51521478       4.15084109       2.99945109       0.01192222       0.00816711       0.02995905
Si       2.93600614       4.25687792       0.65551070       0.04566319      -0.00363769      -0.03711171
Si       6.03298621       4.63632801       3.29271935      -0.04417620      -0.00182890       0.00580856
Si      10.65566281       4.43381416       2.11821722       0.01178778      -0.05975591      -0.04130624
Si       7.64711491       4.78168299       1.18569245      -0.01775060       0.06505676      -0.03165765
Si       9.44981915       6.54883031       3.40060686       0.03609496       0.06664504      -0.01838573
Si      10.49765759       5.76036223      10.98375919      -0.01737637       0.01843235       0.03757090
Si       3.03808896       8.85971089       0.29498850       0.02338662      -0.03670579       0.02846838
Si       0.66656621      10.21828205       0.99503653      -0.01936229       0.04016409      -0.02362496
Si       0.04223316       7.90089324       1.58507101      -0.02511483      -0.05777587       0.00120815
Si       7.02846183       7.35627258       2.04055149      -0.05457994      -0.02578635      -0.10062728
Si       6.54119883      11.00380482       1.62255523      -0.03377842      -0.06291906      -0.07886101
Si       3.79652231       7.37807692       2.55961991       0.05169458       0.04685076       0.00250795
Si       5.44098069       7.59333493       0.08191566      -0.02544306       0.02184226       0.02364823
Si       8.52629222       9.31303976       1.86330884      -0.06827848      -0.03089441      -0.00439091
Si       0.32929149       3.68281966       4.74897909       0.14598945      -0.06017872      -0.01444886
Si       0.30223794       1.07677090       4.33611778       0.34241330       0.00378962      -0.18696043
Si       2.74509551       2.44019395       4.47187048      -0.02033666       0.00827733      -0.01474838
Si       4.65808105       0.81113908       4.96509657      -0.12924183       0.08339577      -0.08144799
Si       7.17645099       0.07112519       5.38208059      -8.92329996     -11.26080778      -0.97332943
Si       1.12659240       6.38186095       4.93041265       0.01406352       0.02439724       0.03645121
Si       3.48852812       6.91711543       5.84819004       0.00454868      -0.02819254       0.00898291
Si       5.71706195       6.86721911       4.68645911       0.00019997      -0.04807284       0.02330668
Si       5.20710342       3.67197996       5.89141098      -0.05811807       0.05149063       0.03280448
Si       8.56071164       6.80607538       6.36841681       0.05250198       0.22170102       0.02009767
Si       8.19259412       3.93217597       6.57390697      -0.13803983       2.62349542       0.84530058
Si      10.64116191       5.13340867       6.76960502      -0.04880695       0.05407406       0.03443004
Si       8.58931050       3.88149967       4.02604784       0.08719679       1.28057814      -0.91607297
Si       0.90892374       8.72728856       4.18000112       0.01587777      -0.05682251      -0.02814530
Si       0.15818299      10.42345081       6.22503570      -0.00816698      -0.06480813       0.05535921
Si       2.70487623       9.61702090       6.51217582      -0.01011625       0.01690861       0.02597727
Si       3.50170121       9.55702479       4.00073355       0.01573535       0.04132302       0.04865168
Si       6.19449857       9.25656254       4.02064193       0.01452073      -0.08466907      -0.23205830
Si       9.10433198       8.91528647       4.39513714       0.00787159      -0.02102516      -0.01161694
Si       1.16535411       2.63056556      10.60604189       0.00897020       0.03636770      -0.06364202
Si       1.29679456       0.21487541       9.88159455       0.02835413       0.02494962       0.00268507
Si       3.76832962       0.98954473       7.31564298      -0.02119874       0.01552179       0.02242272
Si       6.01931594       1.98912539       7.62234286      -0.49658312       0.04839340       0.38967623
Si       3.77935628      10.89888853       9.57937415      -0.00894598       0.01188033      -0.04293738
Si       6.01807387       3.19362581       9.86069074       0.01145325       0.01533870      -0.01146491
Si       9.57555378       3.13660145       8.94271474       0.10891828       0.08262977       0.34505733
Si       7.44681540       0.76783418      10.34182022       0.00638880      -0.04018304       0.00063464
Si       9.94226766       0.57546041       8.56597331       0.00932237       0.04582801       0.00492722
Si       0.49392691       4.51485168       9.24655020      -0.01653747      -0.00916972      -0.01788682
Si       6.34691259       6.91067384       7.33925721       0.07589977      -0.03084916      -0.02803116
Si       4.42396701       5.22911877       7.70449233      -0.02014505      -0.04470828      -0.02272228
Si       4.45964662       5.55902919      10.19036169       0.00290588       0.01038322      -0.00013525
Si       7.95048484       6.58336794      10.22759464       0.03403052      -0.02222347       0.06284386
Si       7.41746414       4.80975083       8.72698179      -0.02440239      -0.03147787       0.12916699
Si       3.33845546       7.69438946       8.37672700       0.00230722       0.01208301      -0.01529382
Si       1.27054557       7.66811313       9.97492782      -0.01647880      -0.00535093       0.01079541
Si       7.19917466      10.70839227       7.80480308      -0.15680576      -0.41057522       0.35693059
Si       5.50317725       8.92442956       8.83288588       0.04775849      -0.01110096       0.03911423
Si       9.41133766      10.17752413      10.69954287      -0.03082074       0.00204812      -0.03177529
Si       9.33999804       9.17231089       7.33007826      -0.08004744      -0.14191928       0.01375940
Si       9.77020140       8.12561881       9.51308849       0.01555978       0.01721749      -0.02146507
Bi      -2.60049224       1.66781306       5.62429604       8.57945385       8.40687131       4.37868035
65
Lattice="11.0580315118 0.0 0.0 0.0 11.0228744458 0.0 0.0 0.0 10.9689690222" Properties=species:S:1:pos:R:3:force:R:3 config_type=Bi_disordered virial="17.583600826398992 -6.370977879732168 11.859663526219794 -6.370977879732168 32.788083334302435 7.795139791182779 11.859663526219794 7.795139791182779 26.96712552707671" energy=2.491591239999991 pbc="T T T"
Si       2.08513338       2.78890491       2.19567434       0.04500470       0.01114185      -0.00982595
Si       1.63639877       0.98144320       0.47206834       0.00746953      -0.06313956       0.03699143
Si       3.65208825       0.63865030       2.77623018       0.00928368       0.03705271      -0.03575424
Si       5.34329425       2.76357215       2.36455411      -0.07698892       0.01060384      -0.22490210
Si       5.21692870       1.21529389       0.37911981      -0.07475412      -0.03969216       0.04430834
Si       9.16513719       1.18520650       1.65177992      -0.01263817      -0.00844986       0.01482951
Si       7.75960261       3.22236230       1.66753735       0.01704136       0.02718749       0.11369168
Si      10.65394835       2.51439116       3.56837761      -0.00164717      -0.04443118       0.04176010
Si       1.98040080       5.07578612       3.20945183       0.02471424       0.03254994      -0.00583185
Si       0.99488527       7.18739786       2.20767555       0.00515121       0.02435122       0.03473346
Si       0.42012151       5.71408547       0.33609315      -0.05929966      -0.05242348      -0.12295144
Si       4.53844531       4.78955713       1.11138208      -0.00564411      -0.03769525       0.02131394
Si       6.59198934       6.63842295       2.62075774      -0.00153275      -0.01676017       0.06555012
Si       4.69188686       5.51290011       3.61664178      -0.10624686       0.00347934      -0.02799347
Si       8.99861476       5.42920975       2.23949378       0.02827649       0.10043459      -0.11397527
Si       2.01776258       9.39732452       1.32785775       0.00862373      -0.00620557       0.03693823
Si       4.53310115       9.16218409       2.00464582      -0.03159402       0.03816362      -0.00216855
Si       5.90791306       8.33948916       0.01643450       0.02698996       0.00122952      -0.02855459
Si       7.01666445      10.66889439       0.77770612      -0.00209899      -0.01052011      -0.00810433
Si      11.00950250      10.36063555       2.45450678       0.00040969       0.04489239       0.00661558
Si       7.82365564       9.98994354       3.19679738      -0.00573955       0.02632244       0.02882651
Si       8.47138138       8.13508248       0.86145962       0.01752209      -0.01490614       0.02892549
Si       9.88245519       7.82913664       3.18149639      -0.00845342      -0.00297748      -0.00781182
Si       0.46710310       1.25417242       5.68368270       0.02990480       0.00634882      -0.01790842
Si       6.63850322       2.46346863       5.35635042      -1.38675372      -1.74481793      -4.14074055
Si       5.41634452       0.16037881       4.63135718      -0.05017977      -0.08445388       0.05133491
Si       7.52367974       0.12919240       6.17367230       0.12259906      -0.63460256      -0.11810048
Si       0.97429124       4.32756751       5.29823202      -0.01693512      -0.00164619       0.01665206
Si       1.91845949       6.85151998       6.00812789      -0.01901574      -0.02343358      -0.02401148
Si       5.50899681       4.68424962       5.94499542      -1.61590973       1.28405930      -1.58698359
Si       7.01474849       7.25891069       6.89307185      -0.03743662      -0.15901194      -0.07253445
Si       8.39430731       3.82419239       4.50998471       0.05901269       0.02511169      -0.27113847
Si      10.03353022       5.58387529       6.25281368       0.07389991       0.09419057      -0.11025022
Si       7.90686276       6.44732011       4.92293368      -0.04143348       0.02350753      -0.03720374
Si       3.17345136       7.66294818       3.74173982      -0.03288209       0.00733728      -0.00623110
Si       3.73284310      10.14941784       6.14471316      -0.02029588      -0.00621739       0.00023735
Si       1.86269335      10.83157784       4.28748375      -0.02195706      -0.00338837       0.05277281
Si       1.37459541       9.45053519       6.99825190      -0.00924891       0.01458457      -0.02957671
Si       6.02855761       8.68871775       4.31920269       0.03138183      -0.03865626      -0.05048405
Si       4.52557151       7.54026682       6.44793328       0.02449609      -0.04534279      -0.00113242
Si       9.58527121      10.56219974       5.03779779       0.05322089      -0.01037091      -0.01707430
Si      10.42963195       8.28542879       5.67671471       0.04646323       0.00921073       0.00699212
Si       1.84074673       2.93887787       7.30871828      -0.00094280       0.00683196       0.04567987
Si       3.33182439       0.55838817       9.83972212       0.03971408       0.01058886      -0.01243784
Si       0.82066576       2.99035222       9.41985170       0.00479597       0.05579714      -0.01644583
Si       3.86340509       1.63122507       7.80188005      -0.07778199      -0.04881606      -0.02956492
Si       7.07681404       2.75068001      10.28290118       0.04602338      -0.14483431       1.08780984
Si       4.76157089       3.62088231       9.31133480      -0.38887080      -0.00829027       0.23189155
Si       5.84808675       0.00691610       8.05095086       0.01002497      -0.06716478       0.02960032
Si      10.41937602       0.18496164       7.68231692      -0.04456776       0.06032930       0.01572543
Si       8.90710132       2.33211793       8.65566373       4.42673034      -2.82358105       3.67965893
Si      10.39400563       0.89859863      10.46674359       0.31905435      -0.15114111       0.09898177
Si       2.32236504       4.05828401       0.08288357       0.04146436       0.00035905       0.01262038
Si       3.45982246       4.87928269       7.16203062      -0.01691967      -0.02719744      -0.00435560
Si       6.43123235       5.73207106      10.69906500       0.11440058      -0.13967684       0.03923944
Si       7.19650002       5.21369612       8.22335077      -0.95659751      12.86472302       5.55798957
Si       9.77319828       4.69107998       8.46820810       1.05350089       0.32473132       0.60537717
Si       9.11638630       6.04323926      10.47801615      -0.03826993       0.00178766       0.10150377
Si       2.48011030       9.24251684       9.57000530      -0.01272420      -0.02612177      -0.01430318
Si       4.85390457       8.86180636       8.77752248      -0.00950898      -0.00860650       0.00044322
Si      10.68339161       8.42224549       8.94972859       0.03715312      -0.02309748       0.00193996
Si      10.17497825       9.61251797      10.94047566       0.01678280       0.02972059      -0.03248540
Si       7.76488385      10.93388896       9.36189147       0.00547473      -0.00428358      -0.00983889
Si       8.57589069       9.05262681       7.60126751      -0.00877136       0.00296373      -0.01512898
Bi      -3.72423763       3.34333527      -3.57214991      -1.55294386      -8.65763811      -4.90513062
65
Lattice="10.9005363771 0.0 0.0 0.0 10.9681872854 0.0 0.0 0.0 10.9249688975" Properties=species:S:1:pos:R:3:force:R:3 config_type=Bi_disordered virial="43.91386993463985 -3.6260300762639033 14.622280210558833 -3.6260300762639033 55.04776555462065 1.7365699707798092 14.622280210558833 1.7365699707798092 33.569805575023324" energy=11.116607320000014 pbc="T T T"
Si       3.34160386       1.86229306       3.72787229      -0.01065990       0.00249481       0.01760200
Si       1.25598877       2.44020683       1.16869026       0.02923814       0.00705784       0.01748141
Si       3.83131946       1.29366781       1.31609727       0.00265834      -0.01594363       0.01945088
Si       5.57503989       3.70948606       1.20032558       0.01597421      -0.02362460       0.04334346
Si       6.02883853       2.14659792       3.08736308      -0.02599875       0.00002079       0.00836876
Si       8.35698596       3.10456927       2.03604673      -0.08031453       0.03224944       0.02113828
Si       9.75119156       0.93252801       1.15136742       0.06312199      -0.08801963       0.00352965
Si       1.97545085       5.63876899       1.34171913       0.01018906      -0.05028125       0.01108906
Si       5.69438889       6.25403560       2.03549994      -0.20802120      -0.22606029       0.37063463
Si       4.10796534       6.46997151       0.18003314      -0.07349234       0.00466240      -0.02134677
Si       8.18028027       6.57761174       2.16905010       0.72534545      -1.82789156       1.70036248
Si       8.93281316       4.13844097      10.80268410       0.05002800      -0.15190601      -0.05077511
Si       9.39228159       5.05254511       3.44850906       0.11720295      -0.09485102       0.23241781
Si       1.95026843       9.71628718       1.71256146      -0.08321396       0.05106669       0.02908513
Si       0.97698785       7.82110290       0.62634847       0.22878042      -0.07174300      -0.12349419
Si       5.67359214      10.38902257       2.03777621      -0.36240983       0.51868034       0.15633481
Si       4.08242761       8.96902264       0.82767630      -0.16695093      -0.03248117      -0.06558297
Si       8.54022128       9.25304696       2.92406734       0.95558301       0.52233907       1.30716026
Si       7.63905122      10.35842985       0.49450592       0.74177179      17.62024566       1.41261634
Si       9.47943288       8.30598420       0.60218796      17.45150823      -0.63997938       2.36409446
Si       1.00262040       2.58042546       3.76428584       0.00771153       0.03602098       0.01510366
Si       0.19641120       0.50027541       5.62245738      -0.02740788      -0.05320407       0.06519626
Si       9.45384812       1.21543540       3.92297750       0.02716433      -0.08094660      -0.02775540
Si       7.24420974       0.96716998       6.53791753       0.02137381       0.05863835      -0.06186460
Si       8.16063191       3.17801968       5.09195934       0.00357464      -0.02081717       0.02707128
Si       7.27438126       0.20054121       4.26736312       0.00038031      -0.03900376       0.07025999
Si       2.37180556       6.23479656       3.85437470      -0.01174499       0.02417900       0.02294876
Si       1.26805014       4.46620588       5.25823902      -0.04444342      -0.05298253      -0.05461474
Si       3.38853958       3.64414430       6.23443358      -0.01221065       0.00960815       0.01754153
Si       4.59995927       6.03247544       4.40706234      -0.05221707      -0.03176492       0.09787195
Si       5.42473731       3.82900314       4.83123405       0.03257628      -0.02862809      -0.00824910
Si       6.97371439       4.94636421       6.88717908       0.04587518      -0.01013966       0.00892372
Si       5.72807076       7.08270461       6.83241984      -0.07510523      -0.18631267      -0.08324982
Si      10.56147543       6.61272017       5.04354116       0.00669752      -0.01957412       0.02199245
Si      10.04066032       3.92886364       6.53456188       0.01565835       0.00336259       0.00675814
Si       9.12603662       6.14310699       6.95769567       0.01286481      -0.00737825      -0.01187549
Si       2.53167422      -0.01364066       5.04444994       0.00741844       0.02806643       0.02516919
Si       1.51184517       8.68927531       4.01921818      -0.01527780      -0.00698079       0.03566474
Si       3.81745099       8.54256264       5.64038590      -0.08724340       0.05853821      -0.07585503
Si       6.23084579       8.41749248       4.01137767       0.04093926       0.05979127       0.01401121
Si      10.00826197       9.20731803       4.91236341      -0.05029535       0.12500021       0.07803624
Si       7.84103983       8.05825879       5.98402381      -0.00130841      -0.04542222      -0.01984414
Si       3.05807164       1.43032993       7.37566561      -0.05320724       0.00915141       0.01581860
Si       1.13597400       0.21061758       0.04451351       0.07844218      -0.00977036      -0.02956077
Si       0.89967059       0.40670052       8.06223541       0.02876193       0.08964548      -0.03992365
Si       4.41192127       1.36724899       9.44156556       0.00225614       0.00305947      -0.05736514
Si       5.74193178       2.58135634       7.53702217       0.00571111      -0.03125467       0.05706289
Si      10.81008664       2.79699407       8.59139256      -0.04158047      -0.02910113       0.05040206
Si       8.36447213       1.70578067       9.99018534       0.06777456       0.13306771      -0.17751865
Si       9.11882321       0.71531082       7.88039543       0.01631057       0.09296475       0.00836775
Si       3.46578100       3.90556238      10.77557911       0.02653632       0.01867788       0.00177037
Si       0.40599745       4.26056249      10.83168641      -0.03408281       0.02325529      -0.02033074
Si       1.25864380       5.94306656       7.85128467       0.01564186       0.00054140       0.02682446
Si       2.20733537       3.80826536       8.52325747      -0.02198498      -0.01706159      -0.01490965
Si       5.89177628       6.50768473       9.42757826      -0.38606270      -0.63027206      -0.77443451
Si       6.46716898       3.89127696       9.59543450      -0.03311764       0.04889807      -0.05579875
Si       8.11712041       6.35582173      10.41163715       1.44754719      -5.95828377      -2.59612438
Si      10.23475516       6.75230568       8.93022781      -0.09240394       0.14876765      -0.01715990
Si      10.76673891       9.28376528       9.08512391      -0.10369341      -0.10749129       0.04353796
Si       2.88168647       9.50558638       7.88859671       0.10721783      -0.03695324      -0.02267645
Si       2.25236639       7.69085763       9.45797268      -0.00514361       0.01982075      -0.05209601
Si       6.75393278       8.78690989       9.40418708      -4.54637856       2.01333084     -11.29269476
Si       4.50946289       9.79900721       9.50391636      -0.00841765       0.00706944       0.10182520
Si       8.54048198       9.48635861       8.01264161       0.13223009       0.01315209       0.02651163
Bi       7.47420697      -2.60683446       0.42200949     -15.82767720     -11.15730003       7.20172131
65
Lattice="11.0069419801 0.0 0.0 0.0 10.8920658576 0.0 0.0 0.0 10.930347638" Properties=species:S:1:pos:R:3:force:R:3 config_type=Bi_disordered virial="18.20847486642961 -7.1462079908251 -9.289858536280189 -7.1462079908251 8.981383886097504 4.224723107960436 -9.289858536280189 4.224723107960436 21.721580181560704" energy=0.038974289999998746 pbc="T T T"
Si       1.93487617       1.29571341       1.66550705       0.25533196      -0.11996452      -0.24393750
Si       5.07093896       0.92886046       1.03933686      -0.08298668       0.00082950       0.03524786
Si      10.69866734       2.14539516       2.19097684       2.28163482      -1.31992656       1.40765858
Si       7.45983750       0.40873616       2.04640992      -0.11372116      -0.10743697      -0.02642103
Si       0.25004095       5.57020693       0.23166662       0.08455048       0.06443700      -0.04938455
Si       0.58034377       4.27179180       2.69461747       0.17207676       0.07921635       0.04655062
Si       3.30564423       5.30970521       3.07002933       0.04169888       0.00895284       0.01956810
Si       2.72432353       5.35006478       0.59631410       0.01747668      -0.02854469      -0.03740751