 2
 config_type=Bi_Bi_dimer energy=6.5815425874631739 virial="101.04820979       0.00000000       0.00000000       0.00000000       0.00000000       0.00000000       0.00000000       0.00000000       0.00000000" cutoff=5.00000000 nneightol=1.20000000 pbc="T T T" Lattice="30.00000000       0.00000000       0.00000000       0.00000000      30.00000000       0.00000000       0.00000000       0.00000000      30.00000000" Properties=species:S:1:pos:R:3:force:R:3:Z:I:1:map_shift:I:3:n_neighb:I:1:local_energy:R:1:local_virial:R:9
 Bi              0.00000000      0.00000000      0.00000000    -53.18326831      0.00000000      0.00000000      83       0       0       0       1      3.29077129     50.52410489      0.00000000      0.00000000      0.00000000      0.00000000      0.00000000      0.00000000      0.00000000      0.00000000
 Bi              1.90000000      0.00000000      0.00000000     53.18326831      0.00000000      0.00000000      83       0       0       0       1      3.29077129     50.52410489      0.00000000      0.00000000      0.00000000      0.00000000      0.00000000      0.00000000      0.00000000      0.00000000
 2
 config_type=Bi_Bi_dimer energy=3.9189990231693179 virial="85.18984726       0.00000000       0.00000000       0.00000000       0.00000000       0.00000000       0.00000000       0.00000000       0.00000000" cutoff=5.00000000 nneightol=1.20000000 pbc="T T T" Lattice="30.00000000       0.00000000       0.00000000       0.00000000      30.00000000       0.00000000       0.00000000       0.00000000      30.00000000" Properties=species:S:1:pos:R:3:force:R:3:Z:I:1:map_shift:I:3:n_neighb:I:1:local_energy:R:1:local_virial:R:9
 Bi              0.00000000      0.00000000      0.00000000    -43.57152690      0.00000000      0.00000000      83       0       0       0       1      1.95949951     42.59492363      0.00000000      0.00000000      0.00000000      0.00000000      0.00000000      0.00000000      0.00000000      0.00000000
 Bi              1.95517241      0.00000000      0.00000000     43.57152690      0.00000000      0.00000000      83       0       0       0       1      1.95949951     42.59492363      0.00000000      0.00000000      0.00000000      0.00000000      0.00000000      0.00000000      0.00000000      0.00000000
 2
 config_type=Bi_Bi_dimer energy=1.7483012569309273 virial="71.04009722       0.00000000       0.00000000       0.00000000       0.00000000       0.00000000       0.00000000       0.00000000       0.00000000" cutoff=5.00000000 nneightol=1.20000000 pbc="T T T" Lattice="30.00000000       0.00000000       0.00000000       0.00000000      30.00000000       0.00000000       0.00000000       0.00000000      30.00000000" Properties=species:S:1:pos:R:3:force:R:3:Z:I:1:map_shift:I:3:n_neighb:I:1:local_energy:R:1:local_virial:R:9
 Bi              0.00000000      0.00000000      0.00000000    -35.33726959      0.00000000      0.00000000      83       0       0       0       1      0.87415063     35.52004861      0.00000000      0.00000000      0.00000000      0.00000000      0.00000000      0.00000000      0.00000000      0.00000000
 Bi              2.01034483      0.00000000      0.00000000     35.33726959      0.00000000      0.00000000      83       0       0       0       1      0.87415063     35.52004861      0.00000000      0.00000000      0.00000000      0.00000000      0.00000000      0.00000000      0.00000000      0.00000000
 2
 config_type=Bi_Bi_dimer energy=-.35952211683700636E-002 virial="58.59848262       0.00000000       0.00000000       0.00000000       0.00000000       0.00000000       0.00000000       0.00000000       0.00000000" cutoff=5.00000000 nneightol=1.20000000 pbc="T T T" Lattice="30.00000000       0.00000000       0.00000000       0.00000000      30.00000000       0.00000000       0.00000000       0.00000000      30.00000000" Properties=species:S:1:pos:R:3:force:R:3:Z:I:1:map_shift:I:3:n_neighb:I:1:local_energy:R:1:local_virial:R:9
 Bi              0.00000000      0.00000000      0.00000000    -28.36988309      0.00000000      0.00000000      83       0       0       0       1     -0.00179761     29.29924131      0.00000000      0.00000000      0.00000000      0.00000000      0.00000000      0.00000000      0.00000000      0.00000000
 Bi              2.06551724      0.00000000      0.00000000     28.36988309      0.00000000      0.00000000      83       0       0       0       1     -0.00179761     29.29924131      0.00000000      0.00000000      0.00000000      0.00000000      0.00000000      0.00000000      0.00000000      0.00000000
 2
 config_type=Bi_Bi_dimer energy=-1.4031251776098537 virial="47.80397640       0.00000000       0.00000000       0.00000000       0.00000000       0.00000000       0.00000000       0.00000000       0.00000000" cutoff=5.00000000 nneightol=1.20000000 pbc="T T T" Lattice="30.00000000       0.00000000       0.00000000       0.00000000      30.00000000       0.00000000       0.00000000       0.00000000      30.00000000" Properties=species:S:1:pos:R:3:force:R:3:Z:I:1:map_shift:I:3:n_neighb:I:1:local_energy:R:1:local_virial:R:9
 Bi              0.00000000      0.00000000      0.00000000    -22.54171240      0.00000000      0.00000000      83       0       0       0       1     -0.70156259     23.90198820      0.00000000      0.00000000      0.00000000      0.00000000      0.00000000      0.00000000      0.00000000      0.00000000
 Bi              2.12068966      0.00000000      0.00000000     22.54171240      0.00000000      0.00000000      83       0       0       0       1     -0.70156259     23.90198820      0.00000000      0.00000000      0.00000000      0.00000000      0.00000000      0.00000000      0.00000000      0.00000000
 2
 config_type=Bi_Bi_dimer energy=-2.5093958287057370 virial="38.54782828       0.00000000       0.00000000       0.00000000       0.00000000       0.00000000       0.00000000       0.00000000       0.00000000" cutoff=5.00000000 nneightol=1.20000000 pbc="T T T" Lattice="30.00000000       0.00000000       0.00000000       0.00000000      30.00000000       0.00000000       0.00000000       0.00000000      30.00000000" Properties=species:S:1:pos:R:3:force:R:3:Z:I:1:map_shift:I:3:n_neighb:I:1:local_energy:R:1:local_virial:R:9
 Bi              0.00000000      0.00000000      0.00000000    -17.71611758      0.00000000      0.00000000      83       0       0       0       1     -1.25469791     19.27391414      0.00000000      0.00000000      0.00000000      0.00000000      0.00000000      0.00000000      0.00000000      0.00000000
 Bi              2.17586207      0.00000000      0.00000000     17.71611758      0.00000000      0.00000000      83       0       0       0       1     -1.25469791     19.27391414      0.00000000      0.00000000      0.00000000      0.00000000      0.00000000      0.00000000      0.00000000      0.00000000
 2
 config_type=Bi_Bi_dimer energy=-3.3738977955325020 virial="30.68730023       0.00000000       0.00000000       0.00000000       0.00000000       0.00000000       0.00000000       0.00000000       0.00000000" cutoff=5.00000000 nneightol=1.20000000 pbc="T T T" Lattice="30.00000000       0.00000000       0.00000000       0.00000000      30.00000000       0.00000000       0.00000000       0.00000000      30.00000000" Properties=species:S:1:pos:R:3:force:R:3:Z:I:1:map_shift:I:3:n_neighb:I:1:local_energy:R:1:local_virial:R:9
 Bi              0.00000000      0.00000000      0.00000000    -13.75474046      0.00000000      0.00000000      83       0       0       0       1     -1.68694890     15.34365011      0.00000000      0.00000000      0.00000000      0.00000000      0.00000000      0.00000000      0.00000000      0.00000000
 Bi              2.23103448      0.00000000      0.00000000     13.75474046      0.00000000      0.00000000      83       0       0       0       1     -1.68694890     15.34365011      0.00000000      0.00000000      0.00000000      0.00000000      0.00000000      0.00000000      0.00000000      0.00000000
 2
 config_type=Bi_Bi_dimer energy=-4.0405861253891988 virial="24.05938254       0.00000000       0.00000000       0.00000000       0.00000000       0.00000000       0.00000000       0.00000000       0.00000000" cutoff=5.00000000 nneightol=1.20000000 pbc="T T T" Lattice="30.00000000       0.00000000       0.00000000       0.00000000      30.00000000       0.00000000       0.00000000       0.00000000      30.00000000" Properties=species:S:1:pos:R:3:force:R:3:Z:I:1:map_shift:I:3:n_neighb:I:1:local_energy:R:1:local_virial:R:9
 Bi              0.00000000      0.00000000      0.00000000    -10.52371180      0.00000000      0.00000000      83       0       0       0       1     -2.02029306     12.02969127      0.00000000      0.00000000      0.00000000      0.00000000      0.00000000      0.00000000      0.00000000      0.00000000
 Bi              2.28620690      0.00000000      0.00000000     10.52371180      0.00000000      0.00000000      83       0       0       0       1     -2.02029306     12.02969127      0.00000000      0.00000000      0.00000000      0.00000000      0.00000000      0.00000000      0.00000000      0.00000000
 2
 config_type=Bi_Bi_dimer energy=-4.5462698620249729 virial="18.49356843       0.00000000       0.00000000       0.00000000       0.00000000       0.00000000       0.00000000       0.00000000       0.00000000" cutoff=5.00000000 nneightol=1.20000000 pbc="T T T" Lattice="30.00000000       0.00000000       0.00000000       0.00000000      30.00000000       0.00000000       0.00000000       0.00000000      30.00000000" Properties=species:S:1:pos:R:3:force:R:3:Z:I:1:map_shift:I:3:n_neighb:I:1:local_energy:R:1:local_virial:R:9
 Bi              0.00000000      0.00000000      0.00000000     -7.89857856      0.00000000      0.00000000      83       0       0       0       1     -2.27313493      9.24678421      0.00000000      0.00000000      0.00000000      0.00000000      0.00000000      0.00000000      0.00000000      0.00000000
 Bi              2.34137931      0.00000000      0.00000000      7.89857856      0.00000000      0.00000000      83       0       0       0       1     -2.27313493      9.24678421      0.00000000      0.00000000      0.00000000      0.00000000      0.00000000      0.00000000      0.00000000      0.00000000
 2
 config_type=Bi_Bi_dimer energy=-4.9212363609554348 virial="13.82293318       0.00000000       0.00000000       0.00000000       0.00000000       0.00000000       0.00000000       0.00000000       0.00000000" cutoff=5.00000000 nneightol=1.20000000 pbc="T T T" Lattice="30.00000000       0.00000000       0.00000000       0.00000000      30.00000000       0.00000000       0.00000000       0.00000000      30.00000000" Properties=species:S:1:pos:R:3:force:R:3:Z:I:1:map_shift:I:3:n_neighb:I:1:local_energy:R:1:local_virial:R:9
 Bi              0.00000000      0.00000000      0.00000000     -5.76784263      0.00000000      0.00000000      83       0       0       0       1     -2.46061818      6.91146659      0.00000000      0.00000000      0.00000000      0.00000000      0.00000000      0.00000000      0.00000000      0.00000000
 Bi              2.39655172      0.00000000      0.00000000      5.76784263      0.00000000      0.00000000      83       0       0       0       1     -2.46061818      6.91146659      0.00000000      0.00000000      0.00000000      0.00000000      0.00000000      0.00000000      0.00000000      0.00000000
 2
 config_type=Bi_Bi_dimer energy=-5.1900312635821582 virial="9.89298439       0.00000000       0.00000000       0.00000000       0.00000000       0.00000000       0.00000000       0.00000000       0.00000000" cutoff=5.00000000 nneightol=1.20000000 pbc="T T T" Lattice="30.00000000       0.00000000       0.00000000       0.00000000      30.00000000       0.00000000       0.00000000       0.00000000      30.00000000" Properties=species:S:1:pos:R:3:force:R:3:Z:I:1:map_shift:I:3:n_neighb:I:1:local_energy:R:1:local_virial:R:9
 Bi              0.00000000      0.00000000      0.00000000     -4.03511318      0.00000000      0.00000000      83       0       0       0       1     -2.59501563      4.94649220      0.00000000      0.00000000      0.00000000      0.00000000      0.00000000      0.00000000      0.00000000      0.00000000
 Bi              2.45172414      0.00000000      0.00000000      4.03511318      0.00000000      0.00000000      83       0       0       0       1     -2.59501563      4.94649220      0.00000000      0.00000000      0.00000000      0.00000000      0.00000000      0.00000000      0.00000000      0.00000000
 2
 config_type=Bi_Bi_dimer energy=-5.3723208528072508 virial="6.56793801       0.00000000       0.00000000       0.00000000       0.00000000       0.00000000       0.00000000       0.00000000       0.00000000" cutoff=5.00000000 nneightol=1.20000000 pbc="T T T" Lattice="30.00000000       0.00000000       0.00000000       0.00000000      30.00000000       0.00000000       0.00000000       0.00000000      30.00000000" Properties=species:S:1:pos:R:3:force:R:3:Z:I:1:map_shift:I:3:n_neighb:I:1:local_energy:R:1:local_virial:R:9
 Bi              0.00000000      0.00000000      0.00000000     -2.61994776      0.00000000      0.00000000      83       0       0       0       1     -2.68616043      3.28396901      0.00000000      0.00000000      0.00000000      0.00000000      0.00000000      0.00000000      0.00000000      0.00000000
 Bi              2.50689655      0.00000000      0.00000000      2.61994776      0.00000000      0.00000000      83       0       0       0       1     -2.68616043      3.28396901      0.00000000      0.00000000      0.00000000      0.00000000      0.00000000      0.00000000      0.00000000      0.00000000
 2
 config_type=Bi_Bi_dimer energy=-5.4837685015209434 virial="3.73432010       0.00000000       0.00000000       0.00000000       0.00000000       0.00000000       0.00000000       0.00000000       0.00000000" cutoff=5.00000000 nneightol=1.20000000 pbc="T T T" Lattice="30.00000000       0.00000000       0.00000000       0.00000000      30.00000000       0.00000000       0.00000000       0.00000000      30.00000000" Properties=species:S:1:pos:R:3:force:R:3:Z:I:1:map_shift:I:3:n_neighb:I:1:local_energy:R:1:local_virial:R:9
 Bi              0.00000000      0.00000000      0.00000000     -1.45754082      0.00000000      0.00000000      83       0       0       0       1     -2.74188425      1.86716005      0.00000000      0.00000000      0.00000000      0.00000000      0.00000000      0.00000000      0.00000000      0.00000000
 Bi              2.56206897      0.00000000      0.00000000      1.45754082      0.00000000      0.00000000      83       0       0       0       1     -2.74188425      1.86716005      0.00000000      0.00000000      0.00000000      0.00000000      0.00000000      0.00000000      0.00000000      0.00000000
 2
 config_type=Bi_Bi_dimer energy=-5.5368666692796058 virial="1.30203779       0.00000000       0.00000000       0.00000000       0.00000000       0.00000000       0.00000000       0.00000000       0.00000000" cutoff=5.00000000 nneightol=1.20000000 pbc="T T T" Lattice="30.00000000       0.00000000       0.00000000       0.00000000      30.00000000       0.00000000       0.00000000       0.00000000      30.00000000" Properties=species:S:1:pos:R:3:force:R:3:Z:I:1:map_shift:I:3:n_neighb:I:1:local_energy:R:1:local_virial:R:9
 Bi              0.00000000      0.00000000      0.00000000     -0.49748479      0.00000000      0.00000000      83       0       0       0       1     -2.76843333      0.65101889      0.00000000      0.00000000      0.00000000      0.00000000      0.00000000      0.00000000      0.00000000      0.00000000
 Bi              2.61724138      0.00000000      0.00000000      0.49748479      0.00000000      0.00000000      83       0       0       0       1     -2.76843333      0.65101889      0.00000000      0.00000000      0.00000000      0.00000000      0.00000000      0.00000000      0.00000000      0.00000000
 2
 config_type=Bi_Bi_dimer energy=-5.5416810099641669 virial="-0.79677474       0.00000000       0.00000000       0.00000000       0.00000000       0.00000000       0.00000000       0.00000000       0.00000000" cutoff=5.00000000 nneightol=1.20000000 pbc="T T T" Lattice="30.00000000       0.00000000       0.00000000       0.00000000      30.00000000       0.00000000       0.00000000       0.00000000      30.00000000" Properties=species:S:1:pos:R:3:force:R:3:Z:I:1:map_shift:I:3:n_neighb:I:1:local_energy:R:1:local_virial:R:9
 Bi              0.00000000      0.00000000      0.00000000      0.29814797      0.00000000      0.00000000      83       0       0       0       1     -2.77084050     -0.39838737      0.00000000      0.00000000      0.00000000      0.00000000      0.00000000      0.00000000      0.00000000      0.00000000
 Bi              2.67241379      0.00000000      0.00000000     -0.29814797      0.00000000      0.00000000      83       0       0       0       1     -2.77084050     -0.39838737      0.00000000      0.00000000      0.00000000      0.00000000      0.00000000      0.00000000      0.00000000      0.00000000
 2
 config_type=Bi_Bi_dimer energy=-5.5064760608679979 virial="-2.61064321       0.00000000       0.00000000       0.00000000       0.00000000       0.00000000       0.00000000       0.00000000       0.00000000" cutoff=5.00000000 nneightol=1.20000000 pbc="T T T" Lattice="30.00000000       0.00000000       0.00000000       0.00000000      30.00000000       0.00000000       0.00000000       0.00000000      30.00000000" Properties=species:S:1:pos:R:3:force:R:3:Z:I:1:map_shift:I:3:n_neighb:I:1:local_energy:R:1:local_virial:R:9
 Bi              0.00000000      0.00000000      0.00000000      0.95712583      0.00000000      0.00000000      83       0       0       0       1     -2.75323803     -1.30532160      0.00000000      0.00000000      0.00000000      0.00000000      0.00000000      0.00000000      0.00000000      0.00000000
 Bi              2.72758621      0.00000000      0.00000000     -0.95712583      0.00000000      0.00000000      83       0       0       0       1     -2.75323803     -1.30532160      0.00000000      0.00000000      0.00000000      0.00000000      0.00000000      0.00000000      0.00000000      0.00000000
 2
 config_type=Bi_Bi_dimer energy=-5.4382079434142714 virial="-4.17280320       0.00000000       0.00000000       0.00000000       0.00000000       0.00000000       0.00000000       0.00000000       0.00000000" cutoff=5.00000000 nneightol=1.20000000 pbc="T T T" Lattice="30.00000000       0.00000000       0.00000000       0.00000000      30.00000000       0.00000000       0.00000000       0.00000000      30.00000000" Properties=species:S:1:pos:R:3:force:R:3:Z:I:1:map_shift:I:3:n_neighb:I:1:local_energy:R:1:local_virial:R:9
 Bi              0.00000000      0.00000000      0.00000000      1.49952036      0.00000000      0.00000000      83       0       0       0       1     -2.71910397     -2.08640160      0.00000000      0.00000000      0.00000000      0.00000000      0.00000000      0.00000000      0.00000000      0.00000000
 Bi              2.78275862      0.00000000      0.00000000     -1.49952036      0.00000000      0.00000000      83       0       0       0       1     -2.71910397     -2.08640160      0.00000000      0.00000000      0.00000000      0.00000000      0.00000000      0.00000000      0.00000000      0.00000000
 2
 config_type=Bi_Bi_dimer energy=-5.3428827149305551 virial="-5.50579904       0.00000000       0.00000000       0.00000000       0.00000000       0.00000000       0.00000000       0.00000000       0.00000000" cutoff=5.00000000 nneightol=1.20000000 pbc="T T T" Lattice="30.00000000       0.00000000       0.00000000       0.00000000      30.00000000       0.00000000       0.00000000       0.00000000      30.00000000" Properties=species:S:1:pos:R:3:force:R:3:Z:I:1:map_shift:I:3:n_neighb:I:1:local_energy:R:1:local_virial:R:9
 Bi              0.00000000      0.00000000      0.00000000      1.94007500      0.00000000      0.00000000      83       0       0       0       1     -2.67144136     -2.75289952      0.00000000      0.00000000      0.00000000      0.00000000      0.00000000      0.00000000      0.00000000      0.00000000
 Bi              2.83793103      0.00000000      0.00000000     -1.94007500      0.00000000      0.00000000      83       0       0       0       1     -2.67144136     -2.75289952      0.00000000      0.00000000      0.00000000      0.00000000      0.00000000      0.00000000      0.00000000      0.00000000
 2
 config_type=Bi_Bi_dimer energy=-5.2257912620189462 virial="-6.62603230       0.00000000       0.00000000       0.00000000       0.00000000       0.00000000       0.00000000       0.00000000       0.00000000" cutoff=5.00000000 nneightol=1.20000000 pbc="T T T" Lattice="30.00000000       0.00000000       0.00000000       0.00000000      30.00000000       0.00000000       0.00000000       0.00000000      30.00000000" Properties=species:S:1:pos:R:3:force:R:3:Z:I:1:map_shift:I:3:n_neighb:I:1:local_energy:R:1:local_virial:R:9
 Bi              0.00000000      0.00000000      0.00000000      2.29028530      0.00000000      0.00000000      83       0       0       0       1     -2.61289563     -3.31301615      0.00000000      0.00000000      0.00000000      0.00000000      0.00000000      0.00000000      0.00000000      0.00000000
 Bi              2.89310345      0.00000000      0.00000000     -2.29028530      0.00000000      0.00000000      83       0       0       0       1     -2.61289563     -3.31301615      0.00000000      0.00000000      0.00000000      0.00000000      0.00000000      0.00000000      0.00000000      0.00000000
 2
 config_type=Bi_Bi_dimer energy=-5.0916407180293835 virial="-7.54774754       0.00000000       0.00000000       0.00000000       0.00000000       0.00000000       0.00000000       0.00000000       0.00000000" cutoff=5.00000000 nneightol=1.20000000 pbc="T T T" Lattice="30.00000000       0.00000000       0.00000000       0.00000000      30.00000000       0.00000000       0.00000000       0.00000000      30.00000000" Properties=species:S:1:pos:R:3:force:R:3:Z:I:1:map_shift:I:3:n_neighb:I:1:local_energy:R:1:local_virial:R:9
 Bi              0.00000000      0.00000000      0.00000000      2.56005472      0.00000000      0.00000000      83       0       0       0       1     -2.54582036     -3.77387377      0.00000000      0.00000000      0.00000000      0.00000000      0.00000000      0.00000000      0.00000000      0.00000000
 Bi              2.94827586      0.00000000      0.00000000     -2.56005472      0.00000000      0.00000000      83       0       0       0       1     -2.54582036     -3.77387377      0.00000000      0.00000000      0.00000000      0.00000000      0.00000000      0.00000000      0.00000000      0.00000000
 2
 config_type=Bi_Bi_dimer energy=-4.9446078903486512 virial="-8.28606290       0.00000000       0.00000000       0.00000000       0.00000000       0.00000000       0.00000000       0.00000000       0.00000000" cutoff=5.00000000 nneightol=1.20000000 pbc="T T T" Lattice="30.00000000       0.00000000       0.00000000       0.00000000      30.00000000       0.00000000       0.00000000       0.00000000      30.00000000" Properties=species:S:1:pos:R:3:force:R:3:Z:I:1:map_shift:I:3:n_neighb:I:1:local_energy:R:1:local_virial:R:9
 Bi              0.00000000      0.00000000      0.00000000      2.75884987      0.00000000      0.00000000      83       0       0       0       1     -2.47230395     -4.14303145      0.00000000      0.00000000      0.00000000      0.00000000      0.00000000      0.00000000      0.00000000      0.00000000
 Bi              3.00344828      0.00000000      0.00000000     -2.75884987      0.00000000      0.00000000      83       0       0       0       1     -2.47230395     -4.14303145      0.00000000      0.00000000      0.00000000      0.00000000      0.00000000      0.00000000      0.00000000      0.00000000
 2
 config_type=Bi_Bi_dimer energy=-4.7883436231875738 virial="-8.85880163       0.00000000       0.00000000       0.00000000       0.00000000       0.00000000       0.00000000       0.00000000       0.00000000" cutoff=5.00000000 nneightol=1.20000000 pbc="T T T" Lattice="30.00000000       0.00000000       0.00000000       0.00000000      30.00000000       0.00000000       0.00000000       0.00000000      30.00000000" Properties=species:S:1:pos:R:3:force:R:3:Z:I:1:map_shift:I:3:n_neighb:I:1:local_energy:R:1:local_virial:R:9
 Bi              0.00000000      0.00000000      0.00000000      2.89633875      0.00000000      0.00000000      83       0       0       0       1     -2.39417181     -4.42940081      0.00000000      0.00000000      0.00000000      0.00000000      0.00000000      0.00000000      0.00000000      0.00000000
 Bi              3.05862069      0.00000000      0.00000000     -2.89633875      0.00000000      0.00000000      83       0       0       0       1     -2.39417181     -4.42940081      0.00000000      0.00000000      0.00000000      0.00000000      0.00000000      0.00000000      0.00000000      0.00000000
 2
 config_type=Bi_Bi_dimer energy=-4.6259549664564918 virial="-9.28705872       0.00000000       0.00000000       0.00000000       0.00000000       0.00000000       0.00000000       0.00000000       0.00000000" cutoff=5.00000000 nneightol=1.20000000 pbc="T T T" Lattice="30.00000000       0.00000000       0.00000000       0.00000000      30.00000000       0.00000000       0.00000000       0.00000000      30.00000000" Properties=species:S:1:pos:R:3:force:R:3:Z:I:1:map_shift:I:3:n_neighb:I:1:local_energy:R:1:local_virial:R:9
 Bi              0.00000000      0.00000000      0.00000000      2.98255485      0.00000000      0.00000000      83       0       0       0       1     -2.31297748     -4.64352936      0.00000000      0.00000000      0.00000000      0.00000000      0.00000000      0.00000000      0.00000000      0.00000000
 Bi              3.11379310      0.00000000      0.00000000     -2.98255485      0.00000000      0.00000000      83       0       0       0       1     -2.31297748     -4.64352936      0.00000000      0.00000000      0.00000000      0.00000000      0.00000000      0.00000000      0.00000000      0.00000000
 2
 config_type=Bi_Bi_dimer energy=-4.4599897242438136 virial="-9.59459320       0.00000000       0.00000000       0.00000000       0.00000000       0.00000000       0.00000000       0.00000000       0.00000000" cutoff=5.00000000 nneightol=1.20000000 pbc="T T T" Lattice="30.00000000       0.00000000       0.00000000       0.00000000      30.00000000       0.00000000       0.00000000       0.00000000      30.00000000" Properties=species:S:1:pos:R:3:force:R:3:Z:I:1:map_shift:I:3:n_neighb:I:1:local_energy:R:1:local_virial:R:9
 Bi              0.00000000      0.00000000      0.00000000      3.02767359      0.00000000      0.00000000      83       0       0       0       1     -2.22999486     -4.79729660      0.00000000      0.00000000      0.00000000      0.00000000      0.00000000      0.00000000      0.00000000      0.00000000
 Bi              3.16896552      0.00000000      0.00000000     -3.02767359      0.00000000      0.00000000      83       0       0       0       1     -2.22999486     -4.79729660      0.00000000      0.00000000      0.00000000      0.00000000      0.00000000      0.00000000      0.00000000      0.00000000
 2
 config_type=Bi_Bi_dimer energy=-4.2924413259589063 virial="-9.80628746       0.00000000       0.00000000       0.00000000       0.00000000       0.00000000       0.00000000       0.00000000       0.00000000" cutoff=5.00000000 nneightol=1.20000000 pbc="T T T" Lattice="30.00000000       0.00000000       0.00000000       0.00000000      30.00000000       0.00000000       0.00000000       0.00000000      30.00000000" Properties=species:S:1:pos:R:3:force:R:3:Z:I:1:map_shift:I:3:n_neighb:I:1:local_energy:R:1:local_virial:R:9
 Bi              0.00000000      0.00000000      0.00000000      3.04152232      0.00000000      0.00000000      83       0       0       0       1     -2.14622066     -4.90314373      0.00000000      0.00000000      0.00000000      0.00000000      0.00000000      0.00000000      0.00000000      0.00000000
 Bi              3.22413793      0.00000000      0.00000000     -3.04152232      0.00000000      0.00000000      83       0       0       0       1     -2.14622066     -4.90314373      0.00000000      0.00000000      0.00000000      0.00000000      0.00000000      0.00000000      0.00000000      0.00000000
 2
 config_type=Bi_Bi_dimer energy=-4.1247846395058776 virial="-9.94602315       0.00000000       0.00000000       0.00000000       0.00000000       0.00000000       0.00000000       0.00000000       0.00000000" cutoff=5.00000000 nneightol=1.20000000 pbc="T T T" Lattice="30.00000000       0.00000000       0.00000000       0.00000000      30.00000000       0.00000000       0.00000000       0.00000000      30.00000000" Properties=species:S:1:pos:R:3:force:R:3:Z:I:1:map_shift:I:3:n_neighb:I:1:local_energy:R:1:local_virial:R:9
 Bi              0.00000000      0.00000000      0.00000000      3.03296185      0.00000000      0.00000000      83       0       0       0       1     -2.06239232     -4.97301158      0.00000000      0.00000000      0.00000000      0.00000000      0.00000000      0.00000000      0.00000000      0.00000000
 Bi              3.27931034      0.00000000      0.00000000     -3.03296185      0.00000000      0.00000000      83       0       0       0       1     -2.06239232     -4.97301158      0.00000000      0.00000000      0.00000000      0.00000000      0.00000000      0.00000000      0.00000000      0.00000000
 2