 65
 config_type=Bi_disordered virial="8.84097897       2.62683931       2.63034748       2.62683931      15.55155444      -2.74539907       2.63034748      -2.74539907       7.43280930" energy=-3.7779302363468767 cutoff=5.00000000 nneightol=1.20000000 pbc="T T T" Lattice="10.89328750       0.00000000       0.00000000       0.00000000      10.94676554       0.00000000       0.00000000       0.00000000      10.88484157" Properties=species:S:1:pos:R:3:force:R:3:Z:I:1:map_shift:I:3:n_neighb:I:1:local_energy:R:1:local_virial:R:9
 Si              1.88656302      1.81968306      0.22437660     -0.07365883      0.00230383     -0.02701521      14       0       0       0      34      0.00000000      0.10707071     -0.05622828      0.10626206     -0.02403097     -0.01473474      0.01644213      0.15853527      0.06726286      0.40591270
 Si              0.56756737      3.37392061      1.96813137     -0.07369708      0.06433034     -0.01899294      14       0       0       0      36      0.00000000      0.25460909     -0.12991139      0.08891075     -0.17221306      0.10192095     -0.08089498      0.10447562     -0.05924370      0.01779459
 Si              6.21499812      1.81331013      1.71623769      0.02216164     -0.01105867     -0.01782489      14      -1       0       0      32      0.01111670      0.23141003      0.13816489     -0.28028579      0.11540999      0.11540336     -0.14310137     -0.24033220     -0.13825212      0.31548893
 Si              3.77581962      0.63460088      1.62759859     -0.10378117      0.05894140     -0.16629630      14       0       0       0      35     -2.08528972      0.63731254      0.19320309     -0.10190992      0.35021320      1.23391511     -0.21670752     -1.20150363     -1.56194626      5.60996425
 Si              9.47305620      3.25549631      0.44232232      0.00000000      0.00000000      0.00000000      14      -1       0       0      38      0.00000000      0.00000000      0.00000000      0.00000000      0.00000000      0.00000000      0.00000000      0.00000000      0.00000000      0.00000000
 Si              8.70473658      0.93504338      0.99714227      0.00562296      0.00148551     -0.01283021      14      -1       0       0      36      0.00000000      0.01177585      0.00286239     -0.01668431      0.00311102      0.00075620     -0.00440776     -0.02686957     -0.00653126      0.03806945
 Si              1.42734737      6.43333417      2.73989379     -0.04803137      0.07180170      0.02865694      14       0      -1       0      36      0.00000000      0.05445783      0.06678603      0.03469233      0.12841527     -0.23619848     -0.03998115      0.02582247     -0.00790864     -0.06619765
 Si              3.01041991      4.31935673      2.11797362     -0.06451797      0.14982728     -0.10328742      14       0       0       0      34      0.00000000      0.03375650     -0.15492369      0.11904350     -0.12211082      0.30943197     -0.26631241      0.10340984     -0.25681071      0.17046544
 Si              4.39134548      4.86422928      0.24694909      0.00051448     -0.00533001      0.00433595      14       0       0       0      32      0.00000000      0.00000568     -0.00271833     -0.00207925     -0.00202841     -0.00283443      0.01287152      0.00125800     -0.00386509     -0.01219691
 Si              4.15866350      6.65980755      3.31281685      0.00643966     -0.36611784     -0.15624699      14       0      -1       0      37     -0.00832351     -0.20572569     -0.36411632     -0.11339950     -0.04817403      1.80186331      0.65180048      0.01085452      0.59440070      0.18561996
 Si              5.85194505      6.42415073      1.66821375     -0.03234307      0.06929457      0.07197747      14      -1      -1       0      32      0.00000000     -0.03534729      0.08405561      0.03460084      0.05448328     -0.17196774     -0.10688095      0.05714335     -0.18365264     -0.10738352
 Si              7.63191628      4.39336711      1.75681136     -0.00957713      0.00604147      0.00422515      14      -1       0       0      35      0.00000000     -0.03326381      0.02170600      0.01490207      0.02098357     -0.01369264     -0.00940057      0.01467503     -0.00957606     -0.00657436
 Si              9.96131070      5.39817009      2.56896151     -0.00416218     -0.00193248      0.02516507      14      -1       0       0      34      0.00000000     -0.00240173      0.07159332      0.00846471      0.00413189      0.00027292      0.00323860     -0.05240973     -0.01232727     -0.04235759
 Si              8.46887822      7.11376756      1.01692031      0.00000000      0.00000000      0.00000000      14      -1      -1       0      36      0.00000000      0.00000000      0.00000000      0.00000000      0.00000000      0.00000000      0.00000000      0.00000000      0.00000000      0.00000000
 Si              1.73372708      9.91202287      2.66201895     -0.69353435     -0.38542656     -0.71673601      14       0      -1       0      37     -3.09038282      4.96736182      3.68482414      4.95827769      4.24227930      2.93702871      4.43328149      3.15821944      2.90402123     10.97648538
 Si              2.55997483      7.92373822      1.02047127      0.01985656     -0.06704215     -0.02324558      14       0      -1       0      32      0.00962983      0.12114906     -0.08386571      0.03931714     -0.02834677      0.16729675      0.28812420      0.09349538      0.21989069      0.19512014
 Si              4.58581604      9.16626484      2.42642973      0.46459004     -0.18653131     -0.26672215      14       0      -1       0      36     -2.29796810      4.11284799     -3.14277926     -3.01603851     -3.34779361      4.84555666      3.54609010     -3.35950496      3.58309364      8.79868663
 Si              6.90999938      9.90703597      0.67909461     -0.01199425      0.05170458      0.01099641      14      -1      -1       0      33      0.00000000     -0.07450462      0.08380316     -0.04551188      0.09051410     -0.03677212     -0.11465130      0.01809805     -0.12098204      0.02677725
 Si             10.01972997     10.09861392      2.22143116     -0.13832771      0.03161512     -0.04501366      14      -1      -1       0      33      0.00000000      0.56559652     -0.08057520      0.02027613     -0.10703784      0.05304785     -0.03893702      0.01396687     -0.00785239      0.06030461
 Si             10.64112781      8.45723907      0.56923028     -0.00954709     -0.01329043     -0.00238580      14      -1      -1       0      38      0.00000000      0.00961411     -0.00295906      0.03608690      0.01933767      0.00661462      0.03997461     -0.00204185     -0.00875197      0.01667810
 Si              7.89920815      8.72904841      2.68932381     -0.08342193      0.04546834     -0.01801065      14      -1      -1       0      34      0.00000000     -0.25637913      0.10568223     -0.05161472      0.08088432     -0.04916562     -0.03195616     -0.04220431     -0.03325288      0.02504004
 Si              1.61837173      2.94934433      4.19050990     -0.25736525      0.58683478     -0.25932606      14       0       0       0      32     -0.73396915      1.70300687     -0.84251285     -0.00024690     -4.52616308      6.16721569     -0.18336534      1.15474832     -1.08188826      0.43527037
 Si              5.24227556      1.46172301      5.99849785      1.13371590      0.73299232      0.88766370      14       0       0      -1      33     -2.81623685      7.67740126      4.71881137      4.71102115      5.31191586      3.04310245      2.12481858      3.30286789      0.40059184      4.58172972
 Si              6.61049306      0.42599002      3.96431620      0.53852685     -0.00678471     -0.25890151      14      -1       0       0      30     -2.25850889      7.84454664      0.70895440     -3.11708727      0.48967473      1.38918896     -0.16775220     -0.47839493      0.34387814      1.43637298
 Si              3.92536181      2.02872311      3.82700681      0.12089047      2.33715484     -0.86972638      14       0       0       0      35     -3.25709040      3.66490697      1.90574017     -0.94871971      2.88961685     13.25243053     -7.74939602     -0.98143551     -6.11476210      6.55824393
 Si              7.58938321      3.07229154      4.23682185     -0.08476492     -0.04907116      0.03192100      14      -1       0       0      35      0.00000000     -0.23053657     -0.12617163      0.07775707     -0.09583319     -0.09593024      0.05781161      0.05888971      0.05278441     -0.07519311
 Si              9.13932955      0.72776666      4.11461386     -0.12373492      0.04196895     -0.00357765      14      -1       0       0      33      0.00000000      0.09193591     -0.18087663     -0.09635586     -0.18138550      0.15355701      0.01267984     -0.02019414      0.00119370      0.04894007
 Si             10.66393776      2.09915344      5.67217720     -0.02013347      0.00372938      0.02887076      14      -1       0      -1      37     -0.00606975      0.68528563     -0.41879127     -0.30115959     -0.40692251      0.27415633      0.17789021     -0.26730163      0.15890693      0.03905494
 Si              8.35381809      3.38764036      6.61289051     -0.00346078     -0.00784177      0.00208850      14      -1       0      -1      33      0.00000000     -0.08182512     -0.00519495      0.01817568     -0.00712421      0.00168890      0.01821870      0.01506468      0.01765673      0.02136465
 Si              0.10689220      4.65773574      6.43444200     -0.02272605     -0.03450723      0.04659377      14       0       0      -1      32      0.00000000      0.03933141      0.04165845     -0.01393526      0.05059308      0.09950358     -0.00789016     -0.07460800     -0.01970377      0.07068741
 Si              2.08644040      5.41573807      5.16753470     -0.00734295     -0.04298881     -0.01051717      14       0       0       0      35      0.00000000      0.01554765     -0.06323835     -0.01355921     -0.04831962     -0.09975427     -0.08817053     -0.01409676     -0.05839438     -0.02848000
 Si              5.50097263      3.93409966      3.78308573      0.31839614      0.23397516      0.10333004      14      -1       0       0      36      0.00721224      0.50201804      0.69600205      0.02422229      0.63494419      0.52799763      0.17706638      0.07100507      0.23448268     -0.06010157
 Si              4.55165546      5.48179664      5.57575179     -0.02073720     -0.02481167     -0.02501733      14       0      -1      -1      34      0.00000000     -0.01743167     -0.07788934     -0.00999058      0.02477836     -0.00326568     -0.04435330     -0.01905943     -0.10717237     -0.03032732
 Si              4.69813849      3.63249921      7.17760474     -0.04309715      0.19835560      0.05664239      14       0       0      -1      34      0.00837482      0.13451325     -0.05739558     -0.05037545      0.04962975      0.66159698      0.15600624      0.02378556      0.17928707      0.07329214
 Si              9.10324296      5.53071133      4.91027152      0.02505548      0.01229484     -0.02333774      14      -1      -1       0      35      0.00000000     -0.07433192     -0.01195265      0.01727999     -0.02802895     -0.06713824      0.00818162      0.06405223      0.04663603     -0.01570362
 Si              0.78300720      8.19803846      4.30060576     -0.23899888     -0.44947075     -0.07762056      14       0      -1       0      32     -0.38008814      1.76482843      0.82597650      0.13362452      0.62696728      0.40821150     -0.00921300      1.06898299      0.91160461      0.76057678
 Si              1.89147419      8.10910749      6.38666192     -0.15705278     -0.25428619      0.23467790      14       0      -1      -1      33     -0.94441161      1.72634126      0.80230902     -1.09450606      2.92244669      5.06245712     -5.01551671     -1.51759428     -3.46207666      4.88348962
 Si             -0.06852307      9.87879835      7.17554366     -0.25376941     -0.10584128      0.28672970      14       0      -1      -1      34      0.02878797      0.19780208     -0.05145154     -0.16222121      0.06554608     -0.08288065     -0.00402577     -0.13892631      0.08263176      0.02810541
 Si              4.49234928      8.06077171      6.38616253      0.04911677     -0.28325215      0.44014125      14       0      -1      -1      33     -0.74946854      2.48742949     -2.17547968      0.94353980     -0.60323686      5.04794314     -2.28645916      0.85653463     -4.43652859      3.95755679
 Si              5.91816775      8.81089165      4.39098075      0.01666417     -0.04910816      0.07380495      14      -1      -1       0      36     -1.37123082      8.08615714     -3.08705547      0.56342639     -4.79569983      5.98168269     -1.14245164     -2.93044177      1.21762094      2.36641456
 Si              9.21331539      8.04397957      4.72579697      0.04387332     -0.01193322     -0.00511030      14      -1      -1       0      34      0.00000000     -0.13873574     -0.02995956      0.06541227      0.01242407      0.02519502     -0.00960847      0.02701874     -0.02811235     -0.02558548
 Si              8.91650387      9.93091694      5.90949570     -0.12449981      0.01126959     -0.04817451      14      -1      -1      -1      29      0.00000000     -0.08170892     -0.09517190     -0.15130430     -0.07895842     -0.02140008     -0.01277937     -0.12109264     -0.01205340     -0.08285805
 Si              3.37700578      2.15866759      9.21348120      0.04143041     -0.05884584     -0.09603931      14       0       0      -1      35      0.00000000     -0.07314613      0.08242272      0.02922402      0.07030640     -0.16131891     -0.13554289      0.10921594     -0.17852175      0.02421497
 Si              0.46741210      1.69626183      7.89010911     -0.05027082      0.02876745      0.07683254      14       0       0      -1      35      0.00980982      0.20634610     -0.12354593     -0.26832561     -0.13315783      0.07717271      0.17191782     -0.23921309      0.14232707      0.31145009
 Si              2.36341067      0.16101443      8.06194848      0.08632991     -0.05750074     -0.34042848      14       0       0      -1      33     -1.28945531      1.18098703      0.12234411     -0.23866000      0.15256048      0.37610316     -0.92084176     -3.40608470      0.45165537      6.40156774
 Si              0.58032634      3.58118240      9.62858263      0.00176654     -0.00244318     -0.00507868      14       0       0      -1      35      0.00000000     -0.00325881      0.00612329      0.00266714      0.00297766     -0.00732545     -0.00509835      0.00607952     -0.01514517     -0.01069961
 Si              5.22561990      2.73155169     10.58158094     -0.00352877     -0.00927408      0.03151335      14       0       0      -1      35      0.00000000     -0.00521329     -0.00830650      0.00538291     -0.01353977     -0.02032548      0.01652151      0.04598244      0.06882638     -0.05651812
 Si              6.76001688      2.83153385      8.40749825     -0.02629479     -0.02675408     -0.00565432      14      -1       0      -1      36      0.00000000     -0.04403741     -0.05862562     -0.04805041     -0.04504239     -0.06094065     -0.04801631     -0.01267407     -0.03015251      0.00153748
 Si             10.39130859      0.10326650      9.64382442     -0.01723693     -0.01411813     -0.03095748      14      -1       0      -1      31      0.00000000      0.05436498      0.00357312     -0.02548196      0.01552510     -0.01230148     -0.03118854      0.03937005     -0.02230202     -0.06732729
 Si              7.65203231      0.60920401      9.36184308      0.00784672     -0.00708105      0.00550424      14      -1       0      -1      33      0.00000000      0.00116319     -0.04168686      0.05107109     -0.00743563      0.00063903     -0.02110263      0.01054163     -0.06225886      0.05676837
 Si              2.88642451      6.14095266      9.75364169      0.01065954     -0.02587557      0.04721429      14       0      -1      -1      38      0.00000000      0.02035381     -0.02116079      0.03588859     -0.00469057      0.05053585     -0.08712657      0.01718946     -0.09237148      0.15897529
 Si              2.40156747      4.48726265      8.16367848      0.00570943      0.05151794      0.07327018      14       0       0      -1      33      0.00000000      0.00748429      0.00462436      0.02640860      0.01239687      0.37682844      0.06427264      0.05061257      0.05648555      0.22753544
 Si              6.97141498      4.88394250     10.00552483      0.00000000      0.00000000      0.00000000      14      -1       0      -1      34      0.00000000      0.00000000      0.00000000      0.00000000      0.00000000      0.00000000      0.00000000      0.00000000      0.00000000      0.00000000
 Si              4.97889074      6.32374569      8.47748230     -0.03721263      0.07467593     -0.07949362      14       0      -1      -1      35      0.00000000     -0.03095487      0.07742028     -0.07167879      0.02515053     -0.13650064      0.15274805     -0.03050396      0.16210930     -0.15440719
 Si             10.14574151      5.60981841      8.44889369     -0.00767620     -0.01067726      0.00731536      14      -1      -1      -1      31      0.00000000      0.02025764      0.01918504     -0.01583010      0.02817751      0.02668556     -0.02201899     -0.01930539     -0.01828321      0.01508598
 Si              7.80377511      5.73404798      7.83879129      0.01402574     -0.01054811      0.00658062      14      -1      -1      -1      35      0.00000000      0.04644519     -0.03263402      0.02037419     -0.03492929      0.02454254     -0.01532249      0.02179125     -0.01531129      0.00955920
 Si              1.76154662      8.06183804      8.79828869      0.01542018     -0.02512317     -0.04683388      14       0      -1      -1      36      0.00000000     -0.08434377      0.05547118      0.06314795      0.05852107      0.05128864     -0.03458047      0.06001670     -0.03209314     -0.12815581
 Si              1.78286795     10.17319333     10.40534237      0.07346650      0.05535850     -0.07319041      14       0      -1      -1      31      0.00000000     -0.10018644     -0.06415698     -0.01657882     -0.04947972     -0.05816547      0.03093106      0.10615185      0.02051430     -0.30323774
 Si              5.25043789      7.99017005     10.75386165     -0.00098463     -0.03627518      0.10008274      14       0      -1      -1      34      0.00000000      0.00218420     -0.01019208      0.07457681     -0.02145766      0.11068509     -0.20834888      0.03521930     -0.21571513      0.20982001
 Si              4.84764232     10.24767891      7.46031474      0.25328148     -0.08454605      0.62386999      14       0      -1      -1      31     -1.64299688      3.60124821     -2.06928007      3.44399751     -0.93967872      2.67556390     -0.01434920      5.04803260     -2.62416017      8.40301610
 Si              4.42813907     10.30828808     10.25336056     -0.02948703      0.00088340      0.05094017      14       0      -1      -1      37      0.00000000      0.00202797      0.00642138     -0.05063872      0.00579674     -0.01089817      0.08795381     -0.02823799      0.09316330     -0.39946473
 Si              7.14159676      9.80614956      7.82449657     -0.01762251     -0.02881219     -0.06153107      14      -1      -1      -1      33      0.00216759     -0.08088127     -0.05922620     -0.14835299     -0.06888346     -0.14481393     -0.04896820     -0.12117062     -0.04598819     -0.14228467
 Si              7.46850280      7.94290520      9.38104556      0.08017003     -0.05189375      0.05192913      14      -1      -1      -1      34      0.00000000      0.16029686     -0.16239688      0.16589317     -0.16754978      0.11446835     -0.10166917      0.17422450     -0.10130172      0.10816830
 Si             10.01423157      8.20327909      9.11234236     -0.03028725      0.02864471      0.01551278      14      -1      -1      -1      34      0.00000000      0.07676812     -0.00584468     -0.08482078     -0.05062295     -0.03169421      0.06191066     -0.06736764      0.02657190      0.05378219
 Bi             -7.48374515     10.68597237      4.76013119     -0.43065165     -2.14484262      0.46673793      83       1      -1       0      36     19.07646129    -42.61275417      1.99539628     -2.74817437      0.22700184    -40.46197545      4.41223641      1.91558513      6.40225334    -58.83712431
 65
 config_type=Bi_disordered virial="20.15377605      12.55727203      -4.12477269      12.55727203      34.06140131       3.48530282      -4.12477269       3.48530282      18.75545318" energy=1.2134710760674270 cutoff=5.00000000 nneightol=1.20000000 pbc="T T T" Lattice="11.01467416       0.00000000       0.00000000       0.00000000      11.00790202       0.00000000       0.00000000       0.00000000      10.98449965" Properties=species:S:1:pos:R:3:force:R:3:Z:I:1:map_shift:I:3:n_neighb:I:1:local_energy:R:1:local_virial:R:9
 Si              2.20751825      0.19552425      2.68171193     -0.05111980     -0.01503700      0.02072176      14       0       0       0      34      0.00000000      0.08471986      0.01884848      0.11616891     -0.01196130      0.05235436      0.04014503      0.07317742      0.01235648     -0.02904642
 Si              4.91176999      2.73799371      1.19738154      0.02475416      0.00805244      0.02212128      14       0       0       0      35      0.00000000     -0.05140206      0.01604663     -0.04237741      0.00037503      0.01474314     -0.02888921     -0.07211652      0.00000604     -0.01477649
 Si              6.60637489      1.85984596      3.24928167     -0.88820385      0.37010438     -0.68127131      14      -1       0       0      33     -3.92063131      5.48529616     -0.62371135      3.30535499      0.45429030      1.67642569     -0.28397625      5.83701952     -1.96912972      8.26754267
 Si              4.21055468      0.43245746      0.99660163      0.01727728      0.00891529      0.02308447      14       0       0       0      36      0.00000000     -0.05638817     -0.03610721     -0.02530772     -0.02523306     -0.01830926     -0.01625008     -0.05994125     -0.03839928     -0.04756388
 Si              9.10704345      1.04951028      3.30990213      1.40527928     -0.81502751     -3.06439271      14      -1       0       0      34     -3.81059723      4.75712897     -1.62737142     -5.24627900     -1.40284672     -0.15019256      2.74578361     -4.15016326      2.51760986     15.28621731
 Si             10.63981677      1.81991020      1.37299417      0.29483746      0.15341411     -0.20146177      14      -1       0       0      35      0.00663981      0.48208760      0.23629895     -0.55562086      0.22250236      0.10394554     -0.28077167     -0.52927403     -0.29874129      0.66395818
 Si              8.55614593      2.64893161      0.17468030      0.05143870     -0.02634957     -0.03707122      14      -1       0       0      32      0.00000000     -0.02435652      0.02715331      0.08011692      0.02090681     -0.05643176      0.13106602      0.04531371      0.09651207      0.05812882
 Si              1.75455143      6.06041839      2.32796268      0.01874421      0.01235523     -0.00483422      14       0      -1       0      33      0.00000000      0.02671537      0.04456620     -0.04538003      0.01760942      0.02937579     -0.02991222     -0.00689002     -0.01149383      0.01170373
 Si              3.51521478      4.15084109      2.99945109     -0.00951420      0.03138273     -0.00634012      14       0       0       0      33      0.00000000      0.06612638     -0.03356975      0.03630980      0.04084333      0.02977874     -0.04957275     -0.00519876      0.01605084      0.06160069
 Si              2.93600614      4.25687792      0.65551070     -0.00045543      0.00023516     -0.00041494      14       0       0       0      31      0.00000000      0.00141046      0.00017281      0.00120106     -0.00072830     -0.00008923     -0.00062018      0.00128506      0.00015745      0.00109428
 Si              6.03298621      4.63632801      3.29271935     -0.14290782      0.05536243     -0.02027355      14      -1       0       0      35      0.00271472      0.40057051     -0.37349478      0.26008989     -0.27952789      0.35119475     -0.23156177      0.21909330     -0.27246223      0.08309750
 Si             10.65566281      4.43381416      2.11821722      0.09409967     -0.00342902     -0.07429000      14      -1       0       0      35      0.00000523      0.20352050      0.02831355     -0.19823652     -0.00076394     -0.01446495     -0.01621383     -0.17994443     -0.03912200      0.08395869
 Si              7.64711491      4.78168299      1.18569245     -0.02580428      0.00487488     -0.02047113      14      -1       0       0      36      0.00000000      0.02343549     -0.03646851      0.02663007     -0.00914108      0.01283393      0.02994294     -0.00602021     -0.02124453      0.13846261
 Si              9.44981915      6.54883031      3.40060686      0.02686443      0.19099052      0.01124819      14      -1      -1       0      33      0.00000000      0.02583329      0.15536496     -0.00934614      0.13996910      0.07481108     -0.15557454     -0.00169217     -0.12019418      0.00597754
 Si             10.49765759      5.76036223     10.98375919      0.01176887      0.01319373      0.04307373      14      -1      -1      -1      34      0.00000000      0.01210302      0.03322272      0.02146979      0.01291090      0.03601306      0.02540990      0.03430139      0.10286431      0.09896249
 Si              3.03808896      8.85971089      0.29498850      0.00000000      0.00000000      0.00000000      14       0      -1       0      31      0.00000000      0.00000000      0.00000000      0.00000000      0.00000000      0.00000000      0.00000000      0.00000000      0.00000000      0.00000000
 Si              0.66656621     10.21828205      0.99503653     -0.03480116      0.00916572     -0.03543053      14       0      -1       0      32      0.00000000     -0.06470542      0.06660702      0.01977514      0.04713291     -0.01057898      0.04799086     -0.01752956      0.04456207     -0.01903458
 Si              0.04223316      7.90089324      1.58507101     -0.00040180      0.00921249      0.00120267      14       0      -1       0      32      0.00000000     -0.00078454      0.00040758      0.00112908      0.01798807     -0.00934508     -0.02588769      0.00234830     -0.00121998     -0.00337958
 Si              7.02846183      7.35627258      2.04055149     -0.01681091      0.01566717     -0.00889115      14      -1      -1       0      35      0.00000000      0.01564090      0.00044385      0.03537607     -0.02188394      0.04474231     -0.03073345      0.02055374     -0.02714023      0.01842672
 Si              6.54119883     11.00380482      1.62255523      0.02487290     -0.08189155      0.03574816      14      -1      -1       0      36      0.00969603      0.04004285     -0.00381184      0.02734379      0.05581739      0.17194390      0.21186657      0.07292141      0.12514979     -0.03896759
 Si              3.79652231      7.37807692      2.55961991     -0.00888158     -0.00996798     -0.00603915      14       0      -1       0      35      0.00000000      0.02142107      0.02020928      0.01353161      0.02375288      0.01443098      0.01388696      0.01449124      0.01161643      0.00886618
 Si              5.44098069      7.59333493      0.08191566      0.00148466      0.00216287      0.00951060      14       0      -1       0      32      0.00000000     -0.00108764     -0.00158039     -0.00570763     -0.00178251     -0.00796672     -0.00920737     -0.00700080     -0.01108097     -0.03671328
 Si              8.52629222      9.31303976      1.86330884      0.02328479     -0.16534388     -0.12620263      14      -1      -1       0      37      0.00000000      0.06768637     -0.07291772     -0.06800066     -0.10502981      0.45077519      0.33171424     -0.10350386      0.31933846      0.32285422
 Si              0.32929149      3.68281966      4.74897909      0.08740516      0.04343015     -0.03453540      14       0       0       0      32     -1.37932669      6.47507416      3.51154530     -0.23244500      3.19559845      2.13917955      0.26381177     -3.00377959     -1.73661272      0.58088483
 Si              0.30223794      1.07677090      4.33611778      0.40227685     -0.08556924     -0.20630954      14       0       0       0      31     -1.82753918      8.56332653     -1.90168107     -2.89186912     -2.97018304      2.88154699      0.46420655     -4.66638640      0.35209044      2.99410640
 Si              2.74509551      2.44019395      4.47187048      0.02177487      0.01988862     -0.00712891      14       0       0       0      33      0.00000000     -0.12691076      0.13964585     -0.06727885      0.21486286      0.07218449     -0.07022937     -0.08756922     -0.05694718      0.05956982
 Si              4.65808105      0.81113908      4.96509657     -0.12127778     -0.07032443     -0.08669061      14       0       0       0      31     -0.49998646      1.18891264      0.35214345      0.25384550     -0.91122467      0.22732922      0.02499881      0.66788855      0.34140545      0.19658277
 Si              7.17645099      0.07112519      5.38208059     -9.46492729    -11.78157176     -0.61351663      14      -1       0       0      34     -5.01942198      9.28559803     10.46113898      2.76958631      8.32212522      9.84588419      1.93416234      0.37803164     -0.73238179      4.27999391