 16
 config_type=Bi_subs virial="19.23963394       2.48715372       1.56103790       2.48715372      13.46021207       1.77089580       1.56103790       1.77089580      13.81348927" energy=-2.6774548168302390 cutoff=5.00000000 nneightol=1.20000000 pbc="T T T" Lattice="7.56659420      -0.15011368      -0.18512703       3.77015621       6.60021390      -0.11594206       3.73284512       2.14109331       6.14396549" Properties=species:S:1:pos:R:3:force:R:3:Z:I:1:map_shift:I:3:n_neighb:I:1:local_energy:R:1:local_virial:R:9
 Si              1.83336795      0.98699720      0.72866749      5.84124523      3.23504335      2.26931746      14       0       0       0      32     -5.81024901     19.68294222      9.80490150      6.20071268      9.40343621      7.54479614      3.69369748      6.71022767      4.13125647      5.04463796
 Si              1.75370148      0.90982832      3.06023546     -0.02209144     -0.06139427      0.19753350      14       0       0       0      33     -1.23525794      1.71700530      1.23773934      3.12739370      1.20100154      0.31405747      1.55441531      2.48556532      1.42773688      5.21745967
 Si              3.54374386      2.11215988      3.75420100     -0.21356101      0.02162985     -3.76570873      14       0       0      -1      32     -5.51779260      2.68504281      0.12714886      1.27564979      0.13025621      2.28436538      0.20442870      2.11108745     -0.02758783     24.86505669
 Si              1.81221629      3.29739286     -0.12293601     -0.16184001     -0.08094370     -0.06321862      14       0      -1       0      33     -1.03475573      1.66844454      2.55812194      0.14977378      3.19120886      5.31422949     -0.09465080      0.03761771     -0.33883992     -0.08378346
 Si              3.66790186      4.24613881      0.64654429     -0.11902879     -3.20917490      1.01919498      14       0      -1       0      34     -5.25084066      2.72980761      0.57834902     -0.10310199      1.09894289     21.63576041     -6.04610435     -0.28172392     -6.27393192      4.46447709
 Si              3.55152580      4.29310599      2.89989548     -0.06255815      0.06850164      0.12787234      14       0       0       0      33     -0.75200591     -0.11170659      0.15908840     -0.17526855      0.38371780      1.95548531     -2.84019900     -0.05698915     -1.92533662      3.62602354
 Si              5.58505036      5.35055963      3.65131465      0.14023763     -0.00497477     -0.00052691      14       0      -1      -1      33     -0.01190156      0.66696539      0.15677157      0.66186960      0.19222382      0.86526049     -0.44097098      0.55177409     -0.44476257      1.55302174
 Si              3.61773003     -0.21409147     -0.28623407      0.14960991     -0.06734221     -0.14185927      14       0       0       0      33     -1.18485325      6.95512731     -0.83969330     -0.55384980     -0.29447081      0.20620579      0.32313973     -0.05646827      0.45037994      0.10440041
 Si              5.53203686      0.82162471      0.58467175     -3.71149818      1.94276715      1.40866083      14      -1       0       0      33     -5.71987777     18.58893060     -8.32919683     -5.33786641     -8.70537134      6.52770375      3.25880540     -6.22128472      3.56050237      4.45561437
 Si              5.46665956      0.97736994      2.92502568      0.15116665     -0.09381336      0.02072705      14       0       0       0      33     -0.76640187      1.60023572     -0.84313134     -1.90285670     -0.67335348      0.27737469      1.02787439     -1.87159382      1.40240764      3.45444689
 Si              7.36702764      1.94007057      3.58595118      0.06553827      0.06985696     -0.07125472      14      -1       0      -1      34     -0.01746925      0.79770915     -0.01951905     -0.26545419     -0.09957827      0.48605674      0.76796448     -0.39796200      0.63577680      1.41545231
 Si              5.56198415      3.17876570     -0.11002537      0.13928051     -0.05024094     -0.01460112      14       0       0       0      33     -0.80685590      1.54957153     -2.20853645     -0.21930363     -2.46612124      4.35215393      0.01010699     -0.16805130     -0.15544479      0.02216116
 Si              7.59547381      4.27290105      0.52064838      0.07747902      0.06216898      0.12227233      14      -1      -1       0      32     -0.01234918      2.04865859      0.64771314     -0.31282018      0.66651083      1.41087019     -0.13603393     -0.41072811     -0.19346451      0.11154972
 Si              7.45474785      4.22438000      2.76691083      0.01103921      0.02949954     -0.10018335      14      -1       0       0      33      0.00000000     -0.20365683      0.05268672     -0.03132745      0.04578113     -0.10451434      0.07133782     -0.02336785      0.07439804     -0.10416404
 Si              9.31198652      5.17493723      3.66213693     -0.03288804     -0.12776747     -0.03533289      14      -1      -1      -1      32      0.01610776      0.48370336     -0.41843089      0.02820423     -0.39681472      0.84848160     -0.27129806     -0.01943263     -0.24566524      0.72775340
 Bi             -0.02240905     -0.04515736      0.01067859     -2.25213081     -1.73381586     -0.97289290      83       0       0       0      33     25.42704806    -41.61914677     -0.17685890     -0.98071700     -1.19021570    -40.45807496      0.68838260     -0.82763257     -0.30652894    -41.06061818
 16
 config_type=Bi_subs virial="15.35004404      -2.88029663      -3.67360936      -2.88029663      15.31677964       0.91057030      -3.67360936       0.91057030      25.97728867" energy=-1.3941038062981488 cutoff=5.00000000 nneightol=1.20000000 pbc="T T T" Lattice="7.63935612      -0.10612354      -0.19303872       3.77480665       6.55011846      -0.13261826       3.75212229       2.08552331       6.14491794" Properties=species:S:1:pos:R:3:force:R:3:Z:I:1:map_shift:I:3:n_neighb:I:1:local_energy:R:1:local_virial:R:9
 Si              1.96366513      1.02062927      0.65621177      3.11974123      1.66698163      1.18455918      14       0       0       0      31     -5.54519656     18.38487615      7.88755618      5.05676095      8.59675239      6.28110653      2.75457488      5.53900463      2.77259802      3.87492124
 Si              1.82685789      0.97290856      3.09863989     -0.07666426     -0.12028393     -0.00600340      14       0       0      -1      32     -1.32476281      1.34465226      1.16141576      2.46828969      1.13688664     -0.13010241      1.30361569      2.44100752      1.64873292      4.84544199
 Si              3.70731511      2.03732328      3.98958653      0.29735428     -0.28283682     -9.36668429      14       0       0      -1      32     -6.35992621      3.31750899      0.64190024      0.16020435      0.57032709      2.79478611     -0.78364171     -1.62883409     -1.67411743     30.72740018
 Si              1.95004200      3.25992159     -0.08192068     -0.27803485     -0.23867580     -0.14441667      14       0       0       0      32     -0.91961178      1.10821174      1.69837323      0.30987227      2.49382548      3.54620907     -0.20849357      0.05729818     -1.00014879     -0.64220438
 Si              3.83815007      4.27216406      0.58118562      0.23612554     -4.00450733      1.31942087      14       0      -1       0      32     -5.60967828      2.67287629     -1.31865802      0.52008577     -3.11517515     21.85613029     -6.70284319      1.05440430     -6.50767727      4.16266751
 Si              3.83388581      4.25957638      3.08997427      0.04782368      0.14010644      0.02046254      14       0       0      -1      32     -1.07267909     -0.18342672      0.30287550     -0.00056984      0.15218772      2.98694979     -3.17709554     -0.19441710     -3.52784700      4.94654638
 Si              5.76386110      5.48245407      3.92586187      0.25781303      0.00794063      0.14290747      14       0      -1      -1      32     -0.20339393      0.86032714      1.23480224      0.81304539      1.67874200      3.05076034      1.67530696      1.07032624      1.67138794      1.60906190
 Si              3.76905963     -0.08062600     -0.23401088     -0.10092359     -0.15360424     -0.14058601      14      -1       0       0      32     -0.89540900      3.83607263      0.02565750      0.72258159     -0.98884738     -0.19848070      0.39879335     -0.53182094      0.52960935     -0.24268662
 Si              5.71727340      0.91173669      0.73160098     -5.50043196      3.19377362      2.64783676      14      -1       0       0      32     -6.08925924     16.74556390     -9.66383579     -7.76413897     -8.70401552      7.64342999      5.16197110     -6.79014620      5.08708862      6.52392804
 Si              5.84931672      0.91900200      3.14915772     -0.17570414      0.05532740      0.19079899      14      -1       0      -1      32     -0.98582370      2.54039989     -1.51088742     -3.04247655     -1.25447877      0.65091524      1.98422444     -2.31297811      1.72858551      4.80452957
 Si              7.63334004      2.11216605      3.80321331      0.09909395      0.12674694      0.15255026      14      -1       0      -1      32     -0.04884826      0.98178731     -0.15326579      0.18512273     -0.37698071      0.21666108      0.07783757      0.33361334      0.18021154      0.76898596
 Si              5.80849292      3.29929752     -0.07561209      0.04007719      0.03875183     -0.03012659      14      -1      -1       0      32     -0.96422641      1.51257476     -2.35405614     -0.37847186     -2.18205739      4.66716780     -0.05618738     -0.35299994      0.34785960     -0.15260320
 Si              7.81703817      4.44577626      0.69214854      0.15024773      0.16778353      0.21420895      14      -1      -1       0      32     -0.17051913      3.21492004      1.77763723     -1.00844107      1.91866271      1.64536556     -0.56087692     -1.36858205     -0.72523306      0.43444549
 Si              7.62323214      4.30015139      3.07042634      0.02774440      0.02035732     -0.00193924      14       0       0      -1      32      0.00000000     -0.10867178     -0.00841104      0.02034255      0.01475037     -0.22757630      0.18108697      0.02905140      0.16290409     -0.20233473
 Si              9.59480526      5.49885721      3.97497772     -0.07466575      0.04877407      0.00694608      14      -1      -1      -1      31     -0.02592545      0.90085511     -1.03524828     -0.49950730     -1.10418705      1.77712244      0.51902606     -0.64768278      0.54140424      1.00509429
 Bi             -0.13496823     -0.00752612      0.01973334      1.93040353     -0.66663528      3.81006510      83       0       0       0      32     28.82115603    -41.77848368     -1.56615202     -1.23630904     -1.71668906    -41.24366521     -1.65672841     -0.37085376     -0.32478798    -36.48590492
 16
 config_type=Bi_subs virial="18.08066820      -1.75758579      -2.50687477      -1.75758579      14.71498609       1.30523163      -2.50687477       1.30523163      25.43709172" energy=-1.3646040280215221 cutoff=5.00000000 nneightol=1.20000000 pbc="T T T" Lattice="7.61747219      -0.12002130      -0.17121814       3.75307619       6.58587433      -0.19241610       3.77166029       2.13627376       6.22175732" Properties=species:S:1:pos:R:3:force:R:3:Z:I:1:map_shift:I:3:n_neighb:I:1:local_energy:R:1:local_virial:R:9
 Si              1.83835980      0.93011903      0.79577848      4.33686610      2.37781027      2.03329787      14       0       0       0      32     -5.84329914     20.56001891      8.10001750      6.57123530      8.65111618      5.96919009      3.53172251      7.09048980      3.54759656      5.46674736
 Si              1.78119406      0.96791937      3.17522693      0.03506314     -0.05390387      0.00822811      14       0       0      -1      32     -1.29789800      1.59656746      1.38379105      2.38276540      1.38284405      0.22828234      1.36583211      3.20625515      2.08846093      4.92917929
 Si              3.84362916      2.23886609      4.01225241      0.31027895     -0.03577984     -8.77267364      14       0       0      -1      33     -6.38978505      0.77510525      0.05824506     -1.47031730      0.04648804      2.03994078     -1.56041794     -2.18664558     -2.05513155     29.38180906
 Si              1.85442118      3.27542799     -0.24163848     -0.09577525     -0.26875379      0.03995352      14       0      -1       0      33     -1.07863329      1.93601814      3.15126358      0.31314644      4.06764006      6.56151187      0.04204934      0.19372706     -0.61151602      0.02389776
 Si              3.70881640      4.29126967      0.57498789      0.00020215     -3.56780384      1.25471216      14       0      -1       0      31     -5.63503372      2.07007510      0.29816367      0.53357547     -1.37696355     20.22517881     -7.45368267      1.06094441     -6.18964715      4.63178989
 Si              3.80692644      4.37639784      3.06336043     -0.06778953      0.23145011      0.12879002      14       0       0      -1      33     -0.81966610     -0.21975854      0.12111757      0.10247585     -0.21291130      2.14272425     -2.54307282      0.31061854     -2.22836452      3.59807051
 Si              5.63083976      5.56788194      3.77952565      0.10947040      0.05112199     -0.11306238      14       0      -1      -1      31     -0.10624317      0.59726185      0.70608844      0.62178762      0.97441989      1.83373574      0.92565389      0.87111087      1.04941914      1.52167960
 Si              3.67372700     -0.00749855     -0.19658286      0.05816259     -0.22097805     -0.10015125      14       0       0       0      33     -0.97505850      7.42679990     -0.13463338      0.35774453     -0.67552889     -0.19308729      0.27490553     -0.12506493      0.41702545      0.13581929
 Si              5.66701447      0.92924912      0.64470718     -5.31875112      3.02538372      2.33888282      14      -1       0       0      31     -5.90032901     17.48835324    -10.24711399     -7.64969465     -9.27226925      8.92140795      5.18009612     -6.77191927      5.11292440      6.60407358
 Si              5.82377444      0.97904307      3.02770703     -0.03684350      0.03150973      0.24773502      14      -1       0      -1      33     -0.93047220      1.95889282     -1.48035474     -3.32856460     -0.94969350      0.48929287      1.83367414     -1.83907139      1.50863068      4.69791171
 Si              7.68490898      2.11272832      3.77796162      0.13902345      0.10410295     -0.00860407      14      -1       0      -1      31     -0.05759325      1.01677127     -0.10217938      0.46968967     -0.34888059      0.18305771      0.03539369      0.75556000      0.21987491      0.98100991
 Si              5.76892093      3.16789951     -0.00452541      0.09385405      0.20672462      0.01481471      14      -1       0       0      32     -0.88704300      1.10798787     -2.28346199     -0.11320441     -1.12426945      3.26772860     -0.68382259      0.01411431     -0.26313445     -0.34264575
 Si              7.73320219      4.37996758      0.68757343      0.16634570      0.18727726      0.11729587      14      -1      -1       0      33     -0.07256074      1.78248835      0.99333569     -0.67178528      0.98689414      0.96965125     -0.26731066     -0.92059286     -0.42052954      0.23235618
 Si              7.56886900      4.44428309      3.06992409      0.00918652      0.02889753     -0.05548624      14       0      -1      -1      31      0.00000000     -0.13346119      0.00579266      0.02242313      0.05330095     -0.16312960      0.18635940      0.07282740      0.16350045     -0.08068220
 Si              9.45708062      5.63499275      3.93558820      0.00670929     -0.06563174     -0.03523030      14      -1      -1      -1      32     -0.05059676      0.97043481     -1.21530320     -0.75812245     -1.58167460      2.14328127      1.16989565     -1.00884298      1.18106419      1.31408362
 Bi             -0.14149225     -0.01958076     -0.02317883      0.25399708     -2.03142704      2.90149780      83       0       0       0      31     28.67960790    -40.85288703     -1.11235433      0.10997053     -2.37809797    -39.90378055     -0.73204406     -3.23038530     -2.21494185    -37.65800808
 16
 config_type=Bi_subs virial="13.25057617      -4.92096493      -2.13562019      -4.92096493      22.65608351      -3.78095526      -2.13562019      -3.78095526      14.54933162" energy=-1.9946770652704064 cutoff=5.00000000 nneightol=1.20000000 pbc="T T T" Lattice="7.56196994      -0.11041326      -0.10614938       3.73210099       6.52736987      -0.15521489       3.70034195       2.14224422       6.14556633" Properties=species:S:1:pos:R:3:force:R:3:Z:I:1:map_shift:I:3:n_neighb:I:1:local_energy:R:1:local_virial:R:9
 Si              1.94450383      1.06177371      0.81562666      1.29012627      0.87685245      0.42909924      14       0       0       0      33     -5.19251832     14.63859294      6.18460373      4.30081645      7.36602061      5.85644660      2.70372705      4.99112171      2.64080639      4.27730223
 Si              1.83553916      1.11938177      3.03833182     -0.18379743     -0.04365126     -0.03766662      14       0       0       0      33     -0.96920991      1.23180087      0.96904251      1.92773738      1.03710272     -0.19062411      0.94838498      3.05885004      1.22865506      4.77210341
 Si              3.79668931      2.04477550      3.78388477      0.36946830      0.24090510     -3.72057988      14       0       0      -1      33     -5.40730788      2.81821473      0.06650081     -1.94914823      0.01410093      2.15012536     -0.32651422     -3.96255805     -0.86578173     23.77929133
 Si              1.87366355      3.28937986     -0.03641013     -0.24032568     -0.25376081     -0.04658574      14       0      -1       0      34     -1.30662530      1.61355969      2.71579580      0.44448390      4.11456704      5.77954006     -0.03055383      0.06342069     -0.73632651     -0.27678988
 Si              3.86190949      4.40498516      0.68581971      0.83069394     -8.34222934      3.39659070      14       0      -1       0      33     -6.00973053      3.24579870     -1.69113958      0.75592426     -4.58016880     25.49319698     -9.17070171      1.85569271     -8.70915720      6.07491444
 Si              3.73878979      4.42528739      3.11651845      0.10101948      0.05422368      0.03761345      14       0      -1      -1      33     -1.07833434     -0.04907738      0.08989602      0.09432698     -0.11522955      2.42827825     -2.68132233     -0.08466955     -3.02396595      4.96596131
 Si              5.52731596      5.38069624      3.85108919      0.05731925     -0.11270882     -0.04695252      14       0      -1      -1      34     -0.05478988      0.31457027      0.28355822      0.14479862      0.55338439      1.22057425      0.18650011      0.23460969      0.04108156      0.84631043
 Si              3.84310686     -0.09586817     -0.05413531     -0.40185543     -0.16131895     -0.12043741      14      -1       0       0      33     -0.97836643      6.38196034      0.03288007      0.18087110     -1.30255522     -0.09239393      0.36336638     -0.53385503      0.45518404     -0.54549631
 Si              5.56919723      0.95957550      0.63999595     -4.50703303      2.89118504      1.78680453      14      -1       0       0      34     -5.53757033     14.61645805    -10.86691714     -6.35731087     -9.34793681     10.00140253      4.39047414     -5.51507370      4.45423501      5.04798886
 Si              5.74919421      1.03995491      3.09184158      0.13592782      0.08094404      0.09907881      14      -1       0      -1      34     -0.93613540      1.27702445     -1.05268736     -2.09812892     -0.69286050      0.26760185      1.30463413     -1.70626447      0.95181455      3.80118947
 Si              7.57956585      2.13563466      3.87810769     -0.00588639      0.16626869      0.06786055      14      -1       0      -1      33     -0.15156482      2.48472024     -0.18453186      1.40308091     -0.40017698      0.17759877     -0.05067970      1.27818317      0.08810642      1.37469214
 Si              5.63231909      3.11535964     -0.08133491      0.12359604      0.33723910     -0.22834325      14      -1       0       0      33     -0.96730990      1.97209413     -3.17957478     -0.12937721     -2.06341729      4.60849397     -0.11783259     -0.17933211      0.20687984     -0.07585994
 Si              7.58758002      4.40726608      0.63634102     -0.05197705      0.08543499      0.14175031      14      -1      -1       0      33     -0.09451099      1.48869825      0.40285987     -0.27616747      0.40965394      0.92212058     -0.28486071     -0.39501523     -0.31186195      0.21627912
 Si              7.61136860      4.43035828      2.98403637      0.05499411      0.01885623     -0.01539460      14      -1      -1      -1      32      0.00000000     -0.26541994      0.04529677     -0.13267137      0.06402715      0.14177137      0.01780313     -0.09636053      0.02744471     -0.33010901
 Si              9.38899674      5.37361561      3.89226506     -0.10183143      0.03674655      0.14596215      14      -1      -1      -1      33     -0.01034248      0.59991528     -0.66381345     -0.21859152     -0.72097474      1.31927783     -0.15414539     -0.33009537     -0.12815808      0.87182516
 Bi             -0.16676556     -0.10958676      0.02807225      2.52956123      4.12501331     -1.88879973      83       0       0       0      32     26.69963945    -39.11833444      1.92726543     -0.22626419      0.74349817    -37.42732686     -0.87923469     -0.81427415     -0.09991142    -40.25027115
 16
 config_type=Bi_subs virial="17.98720213      -6.85453744      -5.53764165      -6.85453744      16.67310391       1.65414396      -5.53764165       1.65414396      19.66663543" energy=-1.7080324361785710 cutoff=5.00000000 nneightol=1.20000000 pbc="T T T" Lattice="7.63531963      -0.19504386      -0.11840120       3.70015139       6.58711536      -0.17238723       3.72757119       2.06308316       6.22622315" Properties=species:S:1:pos:R:3:force:R:3:Z:I:1:map_shift:I:3:n_neighb:I:1:local_energy:R:1:local_virial:R:9
 Si              1.96851737      1.02404319      0.69505315      1.93123742      1.26819274      0.80391326      14       0       0       0      32     -5.32184670     15.88454523      6.63060100      3.98135759      7.31467468      5.79156087      2.24838572      4.86454545      2.48070068      3.60418571
 Si              1.89402047      1.07311806      3.10702397     -0.17656473     -0.14888215     -0.20316038      14       0       0       0      33     -1.11854068      0.87883586      1.20011147      1.94380572      1.07250183     -0.03862996      1.01669412      2.80010630      1.72579020      5.06153164
 Si              3.74073140      2.16112628      3.94996562      0.19596522      0.27527148     -5.87016989      14       0       0      -1      32     -5.81304112      2.23572330      0.26931896     -1.23203446      0.32791605      2.23876047     -0.89128547     -3.30092502     -1.90841679     26.55696244
 Si              1.78316181      3.33536985     -0.10962904     -0.23259847     -0.29932054     -0.02668835      14       0      -1       0      33     -1.12647121      0.90868620      2.05988021      0.42339909      3.55760632      5.29935518     -0.24566919      0.01026077     -1.06970532     -0.36360924
 Si              3.82130487      4.29600523      0.58595150      0.27096205     -3.97105629      1.50847740      14       0      -1       0      31     -5.55642679      2.66949022     -1.53295694      0.70112872     -4.14925464     21.20645127     -6.86603813      1.49722400     -6.24489460      3.93787581
 Si              3.84176504      4.40320441      3.14688077      0.06153677      0.04646684     -0.01690786      14       0      -1      -1      31     -0.79449426     -0.07996822      0.17216082      0.16130627     -0.02721509      2.32023651     -2.73787613     -0.09212399     -2.53893226      4.07317410
 Si              5.64122173      5.40805275      3.88429311      0.06619141     -0.07078360      0.00847763      14       0      -1      -1      31     -0.10173583      0.41981073      0.56453811      0.32776469      0.81713843      1.72633732      0.75629284      0.51394454      0.81131189      1.13056336
 Si              3.72424683     -0.03450958     -0.14417760     -0.02091759     -0.19050115     -0.12552540      14       0       0       0      31     -0.88200746      5.35802716     -0.20598247      0.25612307     -0.78182823     -0.33471054      0.33064836     -0.74266594      0.54678819     -0.29630285
 Si              5.80871842      0.87075188      0.72118365     -7.38922618      4.80733637      3.48887012      14      -1       0       0      31     -6.30277941     17.06568833    -11.65928499     -8.71036244     -9.34470514     10.23560658      6.31038604     -6.98889552      6.30293885      6.78061142
 Si              5.73272755      0.99730914      3.12707878      0.14203500     -0.01070826      0.15528451      14       0       0      -1      33     -0.93888660      1.90440831     -1.18810153     -2.47244428     -0.94048148      0.41599414      1.51301719     -2.62677406      1.60019930      4.74504441
 Si              7.77111490      2.10913856      3.83447847      0.10350976      0.16226560      0.05716826      14      -1       0      -1      31     -0.11537621      2.08560627     -0.26724200      1.25977947     -0.60076314      0.10206440     -0.11458615      1.38417012      0.08561391      1.12696963
 Si              5.75116469      3.22457430     -0.10531323      0.15412316      0.08821809     -0.09816451      14      -1      -1       0      33     -0.78076436      0.94039280     -1.82382357      0.00681389     -1.88090350      3.88007246     -0.53875679      0.07887537     -0.36699872     -0.08713781
 Si              7.69761436      4.33417513      0.66178875     -0.00265062      0.14571624      0.11839220      14      -1      -1       0      32     -0.11392463      2.03158810      1.10319782     -0.63009533      0.93165024      1.02445244     -0.23274609     -0.85466759     -0.37878336      0.29196055
 Si              7.69622608      4.41882665      3.11206134      0.07176670      0.04402286     -0.04763298      14       0      -1      -1      31      0.00000000     -0.03878041     -0.04452477      0.00476607     -0.03114077     -0.12187650      0.18741157      0.04154549      0.15336635      0.14997238
 Si              9.68529874      5.41124924      3.95469880     -0.15591304     -0.05184720      0.13391426      14      -1      -1      -1      32      0.01746074      0.65762326     -0.40156668     -0.17443288     -0.42042642      1.09808463     -0.16358980     -0.23460301     -0.17767556      0.94293480
 Bi             -0.17654527     -0.06074981      0.00956233      4.98054315     -2.09439103      0.11375173      83       0       0       0      31     27.24080210    -34.93447501     -1.73086289     -1.38451684     -2.69930659    -38.17065536      1.08185588     -1.88765858      0.63284119    -37.98810092
 16
 config_type=Bi_subs virial="18.91329743       2.12699058       1.38071251       2.12699058      13.19419728       1.02430663       1.38071251       1.02430663      21.81914632" energy=-2.0858994839072951 cutoff=5.00000000 nneightol=1.20000000 pbc="T T T" Lattice="7.64574103      -0.17327851      -0.10057267       3.78397145       6.50980405      -0.19978837       3.72083396       2.04437791       6.15216120" Properties=species:S:1:pos:R:3:force:R:3:Z:I:1:map_shift:I:3:n_neighb:I:1:local_energy:R:1:local_virial:R:9
 Si              1.86810869      1.00550653      0.61933074      6.23715531      3.37175112      2.45067269      14       0       0       0      31     -5.88775116     21.44567739     10.71307607      8.16207576     10.24123010      8.54490112      4.33686606      7.64295492      4.22925822      5.76920133
 Si              1.89289939      0.94895394      2.94424852     -0.14968417     -0.11631933      0.23123233      14       0       0       0      33     -1.32945223      1.51601181      1.34340088      3.20604670      1.32826518      0.23873701      1.73141931      3.13929406      2.03732029      5.84350665
 Si              3.72529146      2.03951137      3.83872231     -0.04050983     -0.11477995     -7.38750049      14       0       0      -1      32     -5.92952207      2.77618911      0.28635910      0.40820936      0.27690654      2.36520401      0.14166173     -0.80399103     -1.11524350     27.78568586
 Si              2.02414494      3.19023531     -0.08111277     -0.25665975     -0.04434544     -0.15090761      14       0       0       0      32     -0.94744788      1.25080430      2.24931520      0.00929387      2.70410540      4.84045492     -0.49631592     -0.44363128     -1.30376239     -0.44601903
 Si              3.77047874      4.22782733      0.67107967      0.02194834     -2.77553664      1.02111537      14       0      -1       0      31     -5.26989792      2.54927887     -0.28471939     -0.10914728     -0.75630940     19.25594132     -8.09107162      0.08360859     -6.75902938      4.75588565
 Si              3.80320304      4.25184018      3.06311978     -0.01300454      0.19628931     -0.05064146      14       0       0      -1      33     -0.83769681     -0.06821019      0.27548352     -0.10239591      0.22671933      2.05175625     -1.44407052     -0.17280646     -2.56422502      3.00145338
 Si              5.81535482      5.39459107      3.76604254      0.18235124      0.03357792      0.02056751      14       0      -1      -1      32     -0.17893671      0.63832202      1.12656329      0.64916329      1.48614048      2.75609613      1.57534468      0.89297595      1.57517828      1.52993714