 15
 config_type=Bi_vac_migration virial="7.16317076      -2.76476958      -1.61397085      -2.76476958       6.78326589      -0.18806446      -1.61397085      -0.18806446      12.51559683" energy=-4.3598822146118126 cutoff=5.00000000 nneightol=1.20000000 pbc="T T T" Lattice="7.61361354      -0.13863694      -0.10402507       3.75292396       6.57306378      -0.18057007       3.74055456       2.11240234       6.23324272" Properties=species:S:1:pos:R:3:force:R:3:Z:I:1:map_shift:I:3:n_neighb:I:1:local_energy:R:1:local_virial:R:9
 Si              1.51655044      1.10702677      3.01035803     -0.06214428      0.08343379      0.15266556      14       0       0       0      30     -1.13393731      1.61413277      1.11493883      2.25762773      1.38001195      0.69649023      2.21960333      3.90863098      2.56291331      6.86013662
 Si              3.47065513      1.86873489      3.82963732     -0.28394143     -0.45453755     -3.99809472      14       0       0      -1      29     -5.31552978      2.71781031      0.43012628      1.69749122      0.50116129      2.70346089      1.71351847      3.90864410      3.53422356     25.88136588
 Si              1.64274724      3.23635356     -0.19128656     -0.13394648     -0.34016614     -0.00284522      14       0       0       0      31     -1.09309732      1.95689198      1.82448325      0.33105532      4.21212350      7.33058034      0.05371319     -0.35672380     -0.91647018      0.26614197
 Si              3.61769118      4.21798309      0.53092746      0.08751213     -1.95064343      0.74239088      14       0      -1       0      30     -5.21899061      1.10798747      1.87698235      0.04912860      3.66382007     15.59978739     -3.42660684     -0.61606840     -4.73904075      1.20280963
 Si              3.72162238      4.12005324      3.13262069      0.03052457      0.38828199     -0.51495451      14       0       0      -1      30     -1.02911889     -0.02809416     -0.01993918      0.26199203      0.16721555      2.19248835     -1.47745736      0.05086217     -4.42753128      5.52216962
 Si              5.42180697      5.36859947      3.50433702      0.08708603      0.01220532      0.03465011      14       0      -1      -1      30     -0.05995885      0.53540400     -0.24272005      1.04817613     -0.21143763      0.91939166     -1.32006705      0.87128563     -1.34716246      2.96674276
 Si              3.63212588     -0.25692193     -0.14627565     -0.04685280     -0.14535853     -0.07802183      14       0       0       0      32     -1.02250707      8.22503787     -0.28828151      0.38235321     -1.52401630      0.13311751      0.15127052     -0.68244815      0.11322833     -0.04126227
 Si              5.47585884      0.78006152      0.56114527     -2.58493086      1.24337128      1.03018867      14      -1       0       0      31     -5.07253050     18.95654906     -5.43233119     -5.04037845     -7.77006702      5.29926353      2.48208495     -6.48116463      2.25127112      3.83656095
 Si              5.60111211      0.92058437      3.02005340      0.01158054     -0.06888451     -0.02676561      14       0       0       0      29     -0.89323838      2.36787712     -1.01278864     -2.54458084     -1.34181453      0.77798575      1.69874922     -2.95113118      1.81965058      5.26314858
 Si              7.39825962      2.08503957      3.66629088     -0.06097510     -0.01441662     -0.09743268      14      -1       0      -1      29     -0.01917581      0.87677053     -0.01514319     -0.43490420     -0.02110583      0.32518687      0.48065716     -0.50835976      0.48353056      1.29651114
 Si              5.94269668      3.04165737     -0.08526150     -0.19557197      0.42211037      0.05181735      14      -1       0       0      31     -1.08138537      2.55559645     -4.22302986      0.09239002     -1.81978308      6.05890124     -0.60683921     -0.55510418      0.75327172     -0.19465143
 Si              7.58058982      4.33281220      0.52160315      0.04907316     -0.06999194      0.03878946      14      -1      -1       0      29      0.00520835      1.61945168     -0.21524066     -0.07429558     -0.11629604      1.73066023     -0.09407638     -0.09732126     -0.11570149      0.12415259
 Si              7.48225600      4.20676699      2.87284336     -0.02539118     -0.04009168     -0.04892941      14      -1       0       0      29      0.00000000     -0.06647611      0.04715966      0.00724197      0.05588566     -0.31984639     -0.09954506      0.01159623     -0.07474803     -0.15196796
 Si              9.28597912      5.04938459      3.58564703     -0.08620239     -0.06376209     -0.01096693      14      -1      -1      -1      29      0.01444538      0.52522318     -0.30850440      0.18318088     -0.32034628      0.56966042     -0.36220919      0.17960572     -0.39207562      0.57039661
 Bi              0.03253844      0.06784921     -0.07304621      3.21418007      0.99844973      2.72750889      83       0       0       0      31     17.55993395    -35.80099139      3.69951874      0.16955111      0.37987910    -37.23386212     -1.60086021      1.70372567      0.30657617    -40.88665785
 15
 config_type=Bi_vac_migration virial="5.95804782      -0.10305761       0.99783786      -0.10305761       2.82365160      -0.25772059       0.99783786      -0.25772059       6.05160692" energy=-5.6955165878300411 cutoff=5.00000000 nneightol=1.20000000 pbc="T T T" Lattice="7.50834601      -0.13912712      -0.10270589       3.78632802       6.56555524      -0.17832623       3.76248996       2.13448708       6.15540671" Properties=species:S:1:pos:R:3:force:R:3:Z:I:1:map_shift:I:3:n_neighb:I:1:local_energy:R:1:local_virial:R:9
 Si              1.45823816      0.92205414      2.98979085     -0.27560102     -0.01910764      0.17306894      14       0       0       0      32     -1.95899141      1.74375281      0.70407894      2.93251160      1.00121681      0.48897380      2.94092621      4.17821531      2.99483248     11.66597462
 Si              3.68763435      1.82420252      3.61314085      0.13931260      0.16329474     -0.21205383      14       0       0      -1      32     -3.85327903     -0.08366398      0.07550588      0.31432974      0.09796421      1.13873054     -0.33147085      3.20478930      2.47549544     11.50249882
 Si              1.83884037      3.31437380     -0.34938991     -0.40034835     -0.33217860     -0.15423181      14       0      -1       0      32     -1.42974684      1.78633742      3.45354181     -0.49131643      3.72136690      8.87628765     -1.79576214     -0.52791874     -1.86208367      0.27034951
 Si              3.73066153      4.12084951      0.42138226      0.10611348     -0.08147372      0.16604307      14       0      -1       0      32     -3.86332990      0.54770093      1.23005820     -0.33407230      2.14774523     11.42675936     -1.66278605     -0.83551439     -3.43814785      1.13373684
 Si              3.65442989      4.22414393      2.93152673     -0.08230766     -0.02634783     -0.29714808      14       0       0       0      29     -0.65046405      0.26814171      0.29441756     -0.25959069      0.76451704      1.80816501     -1.42852866      0.29280786     -1.79497207      2.59600194
 Si              5.23828473      5.26264596      3.44350835      0.16358859     -0.14649119      0.13991279      14       0      -1      -1      34     -0.52272589      0.44502309      0.11355025      0.62742773      0.82201511      1.32454692     -0.72137415      0.23610262     -2.85519121      3.74993706
 Si              3.59938844     -0.14851928     -0.38807612     -0.25978573     -0.12693931     -0.15736541      14      -1       0       0      31     -2.05661534     14.10314669     -0.66436006     -1.75238923     -1.60308490     -0.26132704      0.42528581     -1.58476371      0.28974715      0.57181270
 Si              5.22037632      0.85707698      0.40337195      0.16859933      0.30468905      0.33865886      14      -1       0       0      35     -3.07219814     12.02997645     -4.12601468     -2.87415677     -5.72416125      3.23113456      1.10065599     -3.64178093      1.13481221      2.26523833
 Si              5.78002144      1.06396079      2.82654249      0.04350552     -0.04611738     -0.03321682      14      -1       0       0      31     -0.69922277      1.39745567     -0.49241240     -1.52178358     -0.61254536      0.03415678      0.65899888     -0.20352520      0.21094029      1.49805039
 Si              7.30458036      1.79520491      3.37911757     -0.16429037      0.01520834     -0.05423312      14      -1       0      -1      31     -0.44242173      2.10267707      0.10392652     -0.79908591     -0.50211956      0.12483512      0.19162268     -2.16536861      0.87439082      1.96316935
 Si              5.74371734      3.07056745     -0.04837661     -0.08219210      0.03580710     -0.14135530      14      -1       0       0      30     -0.51508624      0.89340776     -0.97938056      0.05631666     -0.51863590      2.63199646     -0.30022140     -0.54790337      0.14840257      0.05019313
 Si              7.38828259      4.26538743      0.29103962      0.24832603     -0.17873124      0.13366155      14      -1      -1       0      29     -0.38987761      2.40724239     -2.79467314      0.29225675     -0.97051313      3.00163516      0.06104269      0.23364311     -0.00341427     -0.04804188
 Si              7.41047337      4.28642674      2.74696163     -0.02450456     -0.07200528      0.05230643      14       0      -1       0      29      0.00217501      0.00840447      0.05013628      0.24059188      0.00072373     -0.27421610     -0.02633387      0.17260506     -0.06903510      0.03845471
 Si              9.40524098      5.13393108      3.62719870     -0.17879894      0.07803457     -0.01508255      14      -1      -1      -1      28      0.02670132      0.83730043     -0.14174188      0.25696863     -0.04399444      0.78667267     -0.30214311      0.30591310     -0.25367935      0.78582070
 Bi              0.45390622      0.21445147      0.12846072      0.59838319      0.43235837      0.06103529      83       0       0       0      33     13.72956603    -32.52885508      3.07030967      4.30982978      1.31644791    -31.51469927      0.93236738      1.88053644      1.89018197    -31.99158929
 15
 config_type=Bi_vac_migration virial="5.43736685       0.49429030       0.11258657       0.49429030       6.80759770       0.31300738       0.11258657       0.31300738       9.34559826" energy=-5.7525058119007761 cutoff=5.00000000 nneightol=1.20000000 pbc="T T T" Lattice="7.53538796      -0.13997823      -0.10272809       3.76458072       6.53872775      -0.18040498       3.72348227       2.10102341       6.19593435" Properties=species:S:1:pos:R:3:force:R:3:Z:I:1:map_shift:I:3:n_neighb:I:1:local_energy:R:1:local_virial:R:9
 Si              1.72403786      0.90389346      2.95423807     -0.28937458     -0.16536702      0.05564538      14       0       0       0      30     -2.19736173      2.47141651      1.53532830      3.99351829      1.31158186      0.73440359      3.09692255      5.76716386      4.46671671     11.35350553
 Si              3.49269339      1.94408630      3.79633939      0.20933070     -0.07794565     -0.80197497      14       0       0      -1      32     -4.00949779      0.32664039      0.46058341      1.65459986      0.39857594      0.98292616     -0.21017559      5.10148350      2.08379240     11.98617519
 Si              1.75344709      3.18179463      0.00798903     -0.51292708     -0.14477548     -0.26678540      14       0       0       0      32     -2.17887584      2.10500757      4.39625355      0.22099302      5.84005653     11.36339764     -0.06002744     -0.03664411     -0.67704912     -1.04053599
 Si              3.62212335      4.12329953      0.58943862      0.27921932     -0.44905852      0.13235683      14       0      -1       0      31     -3.63935156      0.56177067      0.55437508     -0.37208074      2.60490870     11.73090282     -2.67394567     -1.11182356     -3.85956519      1.22768924
 Si              3.67411419      4.15879805      2.99551279      0.02008080      0.14527494     -0.16699857      14       0       0       0      30     -0.52841448      0.41269878      0.12594634      0.00053321      0.55937175      1.21579689     -0.62948406      0.42074486     -1.50849544      2.44975414
 Si              5.43762375      5.40014008      3.46106953      0.28941627      0.26140350      0.18721512      14       0      -1      -1      31     -0.27622187      0.51533330     -0.13798168      0.72950305      0.73584767      1.12667581     -0.66571033      0.13385836     -2.46155134      3.08751126
 Si              3.54660081     -0.26245162     -0.19761635     -0.05719365      0.09184376     -0.10214478      14       0       0       0      32     -2.41585586     14.45599794     -1.56665285     -0.41869526     -2.39089050      0.19367759      0.19719810     -1.47109012      0.29970379     -0.71214422
 Si              5.32575368      0.97192393      0.58936211      0.20725231      0.37145006      0.15419229      14      -1       0       0      32     -3.27873717     11.44378579     -4.44382249     -3.05352691     -5.61861877      2.56103697      1.14968786     -4.61621582      1.40953261      2.50432514
 Si              5.68955722      0.91723506      2.87953772     -0.14315662      0.07838844      0.09056493      14      -1       0       0      31     -0.60083962      2.13723013     -0.60492973     -2.61262697     -1.15905355      0.40575706      1.68456117     -1.11621102      1.05742088      3.59095255
 Si              7.31817002      1.96362775      3.41082965     -0.07274567     -0.09388029     -0.00747687      14      -1       0      -1      30     -0.37110578      1.58982811      0.67434176     -0.36724886      0.11058593      0.15606408     -0.03909743     -1.52787043      0.36807059      1.94597621
 Si              5.65741353      3.18436903      0.10312757     -0.24033590     -0.01671496      0.02129009      14       0       0       0      29     -0.47083196      1.65849036     -1.47058641     -0.01361117     -0.50055169      2.12570059     -0.39885286     -0.32975099     -0.27928542      0.00178652
 Si              7.49760523      4.06766851      0.49740678     -0.01928364      0.23566187      0.01480969      14      -1      -1       0      30     -0.31428189      1.58443947     -0.35127371      0.61301070     -1.68724256      1.73938497     -0.24824297      0.43109605      0.03857271      0.15436869
 Si              7.46699391      4.30822059      2.99523358     -0.11263982     -0.02063963      0.02376581      14       0      -1      -1      28      0.00000000     -0.12990331      0.10129223     -0.05314001      0.04409771     -0.06663874     -0.03649507     -0.06075364      0.00905771     -0.09904606
 Si              9.17858309      5.25305156      3.71909520      0.04955021     -0.03800126      0.10182911      14      -1      -1      -1      29      0.02518055      0.39572682     -0.20245710      0.04286924     -0.23017780      0.71273419      0.37018377      0.05746776      0.39663835      0.48116497
 Bi              0.47111052      0.27492663      0.16355947      0.39280733     -0.17763976      0.56371134      83       0       0       0      33     14.50368919    -34.09109569      1.42387361     -0.25151088      0.47579911    -28.17422193     -1.22351464     -1.52886814     -1.03055185    -27.58588492
 15
 config_type=Bi_vac_migration virial="6.82204585       0.51520072       1.73899876       0.51520072       6.13769050      -0.10273232       1.73899876      -0.10273232      12.04173060" energy=-5.6069184868446245 cutoff=5.00000000 nneightol=1.20000000 pbc="T T T" Lattice="7.59447999      -0.13839283      -0.10224983       3.79294993       6.63733109      -0.17842435       3.74777213       2.12899528       6.22482047" Properties=species:S:1:pos:R:3:force:R:3:Z:I:1:map_shift:I:3:n_neighb:I:1:local_energy:R:1:local_virial:R:9
 Si              1.64782756      0.90116532      2.81666633     -0.11938634     -0.15650976      0.08312641      14       0       0       0      31     -2.92943068      1.75219100      1.40849363      4.21671233      0.92508399      1.08915386      1.80454780      6.49477019      4.16624029     10.96297673
 Si              3.56372507      1.98072554      4.02596027     -0.00895850     -0.20371266     -1.52798860      14       0       0      -1      32     -4.46887710      1.04578468      0.90685736      2.38564725      0.80753872      0.63270367      0.32082665      6.58352572      3.27255665     14.58561954
 Si              1.65693840      3.20545850     -0.01102249     -0.07123484     -0.18322452     -0.09867157      14       0       0       0      31     -2.60246021      2.09417971      4.82784443     -0.05799150      5.38135998     12.31329960     -0.80175797     -0.41096025     -1.67418651     -0.28598389
 Si              3.66166922      4.21149275      0.45640301      0.36926977     -0.29754582      0.19526047      14       0      -1       0      32     -3.89802719      0.07039982      1.03329475     -0.43859941      2.72953549     12.29047263     -1.71223628     -1.03013060     -3.12102652      0.72066811
 Si              3.76867087      4.17740361      3.02714206      0.07940071      0.20226228     -0.38829684      14       0       0      -1      29     -0.67897010      0.33275551      0.45846814      0.07453043      0.81285986      2.01858229     -1.88709312      0.22926269     -2.94174787      4.42104218
 Si              5.52130615      5.30430461      3.30131852      0.22780001      0.10143838      0.03121844      14       0      -1      -1      29     -0.39210813      0.75228703     -0.89852586      1.59499269      0.51254098      0.40062486     -0.09348633      0.71636580     -2.51409654      3.77218835
 Si              3.82403994     -0.08849158     -0.26422108     -0.48813582     -0.27220566     -0.07323254      14      -1       0       0      31     -1.78702078     11.28579975     -1.07506249     -2.14898797     -1.95410999     -0.11805759      0.51618014     -2.39148059      0.40766791      0.27589453
 Si              5.49077712      0.89354962      0.52163399     -0.37861864      0.38099153      0.26862222      14      -1       0       0      30     -3.88428849     11.40878465     -2.45026296     -1.43353698     -5.28569993      2.08540459      0.21674919     -4.04160820      0.50770885      2.05712470
 Si              5.72527318      0.95301764      2.96914752     -0.30169573      0.06950425      0.13055935      14      -1       0       0      29     -0.81111839      3.08271471     -0.78605693     -3.50839307     -1.04683253      0.33872759      1.52776465     -2.06554654      1.31474745      3.61937703
 Si              7.54336738      1.97714736      3.62755028      0.00292771      0.03942170      0.25094534      14      -1       0      -1      31     -0.23036211      1.26203993      0.78740910      0.32742427      0.05943320      0.12198224     -0.20446719     -1.40159113      0.72400686      1.87512847
 Si              5.74971146      3.17664287     -0.29987245     -0.33102815     -0.03356175     -0.02238056      14      -1       0       0      28     -0.55911232      1.38654611     -1.00571399      0.49118320     -1.18517616      2.06490448     -0.03857005     -0.40689783      0.26295851     -0.18300763
 Si              7.48142505      4.47916369      0.34770905      0.15582901      0.11877670      0.01038578      14      -1      -1       0      30     -0.28231667      1.41759829     -1.88162441      0.10905486     -0.75963137      2.44644237      0.16673776      0.39916983     -0.15454416      0.07819467
 Si              7.55258876      4.40946141      2.88414249     -0.09852164      0.06578834     -0.09951549      14       0      -1       0      28      0.00000924      0.00572417      0.04620281     -0.02070143      0.07385951      0.08083479     -0.17728686     -0.00073154     -0.05724501      0.01163045
 Si              9.25210647      5.36723438      3.66901501     -0.03142662      0.04866564      0.08193996      14      -1      -1      -1      28      0.02229843      0.15578756      0.02982867     -0.00288870      0.01130013      0.47475507      0.12035888      0.01188435      0.22554434      0.47950426
 Bi              0.52730759      0.30723779      0.21968310      0.99377905      0.11991135      1.15802766      83       0       0       0      33     16.89486604    -29.23054708     -0.88595152      0.15055278     -0.56686116    -30.10213995      0.13900041     -0.94703315     -0.52131657    -30.34862689
 15
 config_type=Bi_vac_migration virial="5.69008263      -0.47184498       0.38430274      -0.47184498       5.39088907       1.25905852       0.38430274       1.25905852       9.15899878" energy=-5.6865044127383060 cutoff=5.00000000 nneightol=1.20000000 pbc="T T T" Lattice="7.54623411      -0.13986239      -0.10309648       3.74947689       6.58446472      -0.18044236       3.75846414       2.11150272       6.16956216" Properties=species:S:1:pos:R:3:force:R:3:Z:I:1:map_shift:I:3:n_neighb:I:1:local_energy:R:1:local_virial:R:9
 Si              1.71071286      0.95913552      2.92235034     -0.28165674      0.01299107      0.27966350      14       0       0       0      31     -2.82933844      1.25928699      0.63089030      3.72864667      0.85369842      0.62613621      3.00297009      6.35903727      4.50886532     11.08121473
 Si              3.71040529      1.82614477      3.85600035      0.16190157     -0.17857166     -0.06048415      14       0       0      -1      31     -3.67689512      0.28657893      0.43501907      0.24650070      0.29760572      1.05264515     -0.30428334      4.10464467      2.70759016     10.33480500
 Si              1.76605470      3.18995970     -0.26358003     -0.31725158     -0.18318491      0.02846460      14       0       0       0      31     -2.00603424      1.91257052      4.08549773     -0.27518223      4.17667651     11.96109735     -2.25236546     -0.32840722     -2.34270521      0.58243788
 Si              3.59191897      4.16432478      0.52751510     -0.01837955     -0.65699097      0.31512301      14       0      -1       0      31     -3.92391292     -0.61884784      2.98926441     -0.49346366      4.47230470     10.45649882     -0.39867351     -1.55002779     -3.19220059      0.12398315
 Si              3.74595505      3.94470337      2.97459457     -0.09919499      0.12671431     -0.17989341      14       0       0       0      30     -0.34763707      0.33862517      0.54220361     -0.52723721      0.93400725      1.85284616     -0.41468115      0.10649591     -0.10676409      0.46152946
 Si              5.51268602      5.36457282      3.62403424      0.17460716      0.08070255      0.11155680      14       0      -1      -1      30     -0.38986001      0.70746232     -0.44361244      0.91675736      0.59566996      0.56181483      0.44978951      0.78575858     -2.46136036      3.90104810
 Si              3.58109531     -0.34380086     -0.17329262     -0.06336144     -0.08126085     -0.01709242      14      -1       0       0      32     -2.77632855     13.21454560     -0.74798042     -2.38159693     -2.56420370     -0.37230871      0.76829515     -2.06183414      0.42543840      0.44985682
 Si              5.32138803      0.90432003      0.50909498      0.40271060      0.11547117      0.38970506      14      -1       0       0      32     -2.87776102     11.92644868     -3.46370471     -2.08304865     -5.59844481      2.37298012      0.65076370     -2.94211621      0.74872459      0.90287334
 Si              5.60948659      0.98245322      3.07689296     -0.05901258     -0.02685541     -0.32258822      14       0       0      -1      30     -0.51307066      2.09602094      0.01610813     -1.11455308     -0.50784663      0.01812493      0.42335562     -0.55851673      0.48565822      2.23201915
 Si              7.50124728      1.95290648      3.38082257     -0.07011298      0.14637086      0.23691242      14      -1       0      -1      30     -0.36460520      0.57297991      0.60827289      0.61762243     -0.57416760      0.87224282      0.76258971     -1.73131323      1.85740242      3.36011471
 Si              5.60373186      2.85885993     -0.01326713     -0.12736382      0.11053394     -0.14191285      14      -1       0       0      29     -0.34348379      0.74875070     -0.55155770      0.25530068     -0.63669286      2.95461703     -0.11939685     -0.30095599     -0.12923347     -0.17532740
 Si              7.51532671      4.23172708      0.50709338      0.27354534     -0.04962483      0.02683855      14      -1      -1       0      30     -0.23037654      1.61733750     -1.73430150      0.28999344     -0.30795978      1.83618902      0.04318834      0.00578357      0.29734329      0.04437216
 Si              7.49341632      4.35760494      2.92631161     -0.08254954      0.07807901     -0.02444944      14       0      -1       0      28      0.00768531      0.00978037     -0.01042405      0.10153787     -0.12254570      0.10300092     -0.08682713      0.16284334     -0.07882611      0.16921333
 Si              9.48940799      5.33473204      3.47403384     -0.04017900      0.06235177     -0.09250286      14      -1      -1      -1      28     -0.04339815      1.12866749      0.48078295     -0.95518738      0.55181319      0.54661847     -0.49312217     -1.02176530     -0.43080392      1.86555024
 Bi              0.62847034      0.15204434      0.37623918      0.14629756      0.44327395     -0.54934059      83       0       0       0      33     14.62851200    -29.51012464     -3.30830324      2.05821271     -2.04175965    -29.45161405     -0.77254399     -0.64532398     -1.03007013    -26.17469190
 15
 config_type=Bi_vac_migration virial="8.08968258      -0.09698606      -0.31303059      -0.09698606       3.93143245       1.44301614      -0.31303059       1.44301614       6.19456170" energy=-5.7690764987879684 cutoff=5.00000000 nneightol=1.20000000 pbc="T T T" Lattice="7.59736528      -0.13864535      -0.10256182       3.78166038       6.56409439      -0.17899985       3.75223395       2.10039794       6.22224109" Properties=species:S:1:pos:R:3:force:R:3:Z:I:1:map_shift:I:3:n_neighb:I:1:local_energy:R:1:local_virial:R:9
 Si              1.90843333      0.81427588      2.97301662     -0.32655311     -0.10107943      0.05037628      14       0       0       0      31     -2.48093963      2.91697948      1.29967993      5.23003616      0.90156717      0.36467546      1.96647838      6.11115349      2.73276245     11.03300362
 Si              3.62892410      1.73692272      3.92817184      0.01465345     -0.04627820     -0.86743939      14       0       0      -1      31     -3.89010909      0.60553273      0.48198546      1.64159088      0.44937394      1.49511241      1.02727428      4.30435338      4.59586868     11.36521481
 Si              1.78473181      3.22207779     -0.21249208     -0.38634998     -0.11735157     -0.11875637      14       0       0       0      31     -2.43563823      1.56614580      4.19804931     -0.49599547      5.34560978     10.76882428     -1.65400824     -0.90595484     -2.07704111     -0.06812006
 Si              3.72342418      4.28291439      0.61722646     -0.01687833     -0.40912058      0.21677974      14       0      -1       0      31     -3.93673393      0.15435537      1.12901339     -0.09045722      3.84080118      9.57607103     -0.83699601     -1.09671880     -3.14889504     -0.06831471
 Si              3.51603300      4.20938791      3.05173537     -0.11151686      0.12464421     -0.04120315      14       0       0      -1      30     -0.63402618      0.20397318     -0.33170045      0.62172156      0.19793189      0.71480839     -0.42502644      0.83776052     -2.51565607      4.19180473
 Si              5.50346151      5.41754251      3.73753598      0.07152027      0.01285868      0.06352542      14       0      -1      -1      29     -0.19507548      0.29864628     -0.15237478      0.63757729      0.19995113     -0.00510156      0.06510366      0.74908328      0.15973616      0.80427375
 Si              3.67815105     -0.17148841     -0.13257449     -0.10574020      0.11800264     -0.03320648      14       0       0       0      32     -2.10320312     13.51841446     -1.02581593     -0.53685666     -2.00672826      0.24919493      0.23102865     -1.31767311      0.28292759      0.08139570
 Si              5.48087719      0.81176300      0.70371693     -0.44229097      0.41883499      0.30211542      14      -1       0       0      30     -3.54685027     12.36763509     -1.77665291     -2.30936853     -5.46032544      0.77469459      0.54119475     -4.29971549      0.13369437      2.28034643
 Si              5.75606600      0.90150135      3.02776935     -0.26693440     -0.02020214      0.27196111      14      -1       0       0      30     -0.66039213      2.13497722     -0.32472092     -2.80487930     -0.95954332      0.43335336      1.49512360     -0.85510940      0.78248097      2.75154752
 Si              7.15819612      1.97787776      3.73851607      0.34605996      0.14344415     -0.26651585      14      -1       0      -1      32     -0.60253427      2.40290777     -0.36414509     -2.31613339     -0.25335315      0.66065750      1.61992087     -2.14555267      2.12628462      4.65848254
 Si              5.66327215      3.01278734     -0.02445271     -0.10090486      0.30212288     -0.07072366      14      -1       0       0      29     -0.73198590      3.07406554     -3.88517607      0.47937547     -1.22010719      2.25209885     -0.47464846     -0.74143389      0.52857103     -0.06904083
 Si              7.47123915      4.27959860      0.29980453      0.02568598      0.08484418      0.05141404      14      -1      -1       0      31     -0.25809201      2.08702416     -0.34035813      0.07486931     -0.78558824      0.50493213      0.01240047     -0.02483512     -0.54737160     -0.09278567