 1
 config_type=isolated_atom virial="0.00000000       0.00000000       0.00000000       0.00000000       0.00000000       0.00000000       0.00000000       0.00000000       0.00000000" energy=.00000000000000000E+000 cutoff=5.00000000 nneightol=1.20000000 pbc="T T T" Lattice="20.00000000       0.00000000       0.00000000       0.00000000      20.00000000       0.00000000       0.00000000       0.00000000      20.00000000" Properties=species:S:1:pos:R:3:force:R:3:Z:I:1:map_shift:I:3:n_neighb:I:1:local_energy:R:1:local_virial:R:9
 Si             10.00000000     10.00000000     10.00000000      0.00000000      0.00000000      0.00000000      14      -1      -1      -1       0      0.00000000      0.00000000      0.00000000      0.00000000      0.00000000      0.00000000      0.00000000      0.00000000      0.00000000      0.00000000
 1
 config_type=isolated_atom virial="0.00000000       0.00000000       0.00000000       0.00000000       0.00000000       0.00000000       0.00000000       0.00000000       0.00000000" energy=-.58293834492610268E-001 cutoff=5.00000000 nneightol=1.20000000 pbc="T T T" Lattice="10.00000000       0.00000000       0.00000000       0.00000000      10.00000000       0.00000000       0.00000000       0.00000000      10.00000000" Properties=species:S:1:pos:R:3:force:R:3:Z:I:1:map_shift:I:3:n_neighb:I:1:local_energy:R:1:local_virial:R:9
 Bi              1.98275554      1.11276674      0.78597677      0.00000000      0.00000000      0.00000000      83       0       0       0       0     -0.05829383      0.00000000      0.00000000      0.00000000      0.00000000      0.00000000      0.00000000      0.00000000      0.00000000      0.00000000
