 2
 config_type=Bi_Si_dimer energy=355.07784048960764 virial="1267.29597281       0.00000000       0.00000000       0.00000000       0.00000000       0.00000000       0.00000000       0.00000000       0.00000000" cutoff=5.00000000 nneightol=1.20000000 pbc="T T T" Lattice="10.00000000       0.00000000       0.00000000       0.00000000       5.00000000       0.00000000       0.00000000       0.00000000       5.00000000" Properties=species:S:1:pos:R:3:force:R:3:Z:I:1:map_shift:I:3:n_neighb:I:1:local_energy:R:1:local_virial:R:9
 Si              0.00000000      0.00000000      0.00000000  -1553.45958659      0.00000000      0.00000000      14       0       0       0       9    157.20049922    646.62806269      0.00000000      0.00000000      0.00000000      0.00000000      0.00000000      0.00000000      0.00000000      0.00000000
 Bi              0.81578947      0.00000000      0.00000000   1553.45958659      0.00000000      0.00000000      83       0       0       0       9    197.87734127    620.66791012      0.00000000      0.00000000      0.00000000      0.00000000      0.00000000      0.00000000      0.00000000      0.00000000
 2
 config_type=Bi_Si_dimer energy=281.15890203300296 virial="1096.30597459       0.00000000       0.00000000       0.00000000       0.00000000       0.00000000       0.00000000       0.00000000       0.00000000" cutoff=5.00000000 nneightol=1.20000000 pbc="T T T" Lattice="10.00000000       0.00000000       0.00000000       0.00000000       5.00000000       0.00000000       0.00000000       0.00000000       5.00000000" Properties=species:S:1:pos:R:3:force:R:3:Z:I:1:map_shift:I:3:n_neighb:I:1:local_energy:R:1:local_virial:R:9
 Si              0.00000000      0.00000000      0.00000000  -1262.41294426      0.00000000      0.00000000      14       0       0       0       9    121.07161571    561.74131728      0.00000000      0.00000000      0.00000000      0.00000000      0.00000000      0.00000000      0.00000000      0.00000000
 Bi              0.86842105      0.00000000      0.00000000   1262.41294426      0.00000000      0.00000000      83       0       0       0       9    160.08728633    534.56465731      0.00000000      0.00000000      0.00000000      0.00000000      0.00000000      0.00000000      0.00000000      0.00000000
 2
 config_type=Bi_Si_dimer energy=221.47101660297446 virial="932.51283195       0.00000000       0.00000000       0.00000000       0.00000000       0.00000000       0.00000000       0.00000000       0.00000000" cutoff=5.00000000 nneightol=1.20000000 pbc="T T T" Lattice="10.00000000       0.00000000       0.00000000       0.00000000       5.00000000       0.00000000       0.00000000       0.00000000       5.00000000" Properties=species:S:1:pos:R:3:force:R:3:Z:I:1:map_shift:I:3:n_neighb:I:1:local_energy:R:1:local_virial:R:9
 Si              0.00000000      0.00000000      0.00000000  -1012.44250499      0.00000000      0.00000000      14       0       0       0       9     92.04375007    480.40382794      0.00000000      0.00000000      0.00000000      0.00000000      0.00000000      0.00000000      0.00000000      0.00000000
 Bi              0.92105263      0.00000000      0.00000000   1012.44250499      0.00000000      0.00000000      83       0       0       0       9    129.42726653    452.10900401      0.00000000      0.00000000      0.00000000      0.00000000      0.00000000      0.00000000      0.00000000      0.00000000
 2
 config_type=Bi_Si_dimer energy=173.89839000406491 virial="780.54209704       0.00000000       0.00000000       0.00000000       0.00000000       0.00000000       0.00000000       0.00000000       0.00000000" cutoff=5.00000000 nneightol=1.20000000 pbc="T T T" Lattice="10.00000000       0.00000000       0.00000000       0.00000000       5.00000000       0.00000000       0.00000000       0.00000000       5.00000000" Properties=species:S:1:pos:R:3:force:R:3:Z:I:1:map_shift:I:3:n_neighb:I:1:local_energy:R:1:local_virial:R:9
 Si              0.00000000      0.00000000      0.00000000   -801.63782983      0.00000000      0.00000000      14       0       0       0       9     69.05783308    404.92657998      0.00000000      0.00000000      0.00000000      0.00000000      0.00000000      0.00000000      0.00000000      0.00000000
 Bi              0.97368421      0.00000000      0.00000000    801.63782983      0.00000000      0.00000000      83       0       0       0       9    104.84055692    375.61551706      0.00000000      0.00000000      0.00000000      0.00000000      0.00000000      0.00000000      0.00000000      0.00000000
 2
 config_type=Bi_Si_dimer energy=136.44896450789994 virial="643.74822015       0.00000000       0.00000000       0.00000000       0.00000000       0.00000000       0.00000000       0.00000000       0.00000000" cutoff=5.00000000 nneightol=1.20000000 pbc="T T T" Lattice="10.00000000       0.00000000       0.00000000       0.00000000       5.00000000       0.00000000       0.00000000       0.00000000       5.00000000" Properties=species:S:1:pos:R:3:force:R:3:Z:I:1:map_shift:I:3:n_neighb:I:1:local_energy:R:1:local_virial:R:9
 Si              0.00000000      0.00000000      0.00000000   -627.24185521      0.00000000      0.00000000      14       0       0       0       9     51.11676721    336.98548759      0.00000000      0.00000000      0.00000000      0.00000000      0.00000000      0.00000000      0.00000000      0.00000000
 Bi              1.02631579      0.00000000      0.00000000    627.24185521      0.00000000      0.00000000      83       0       0       0       9     85.33219730    306.76273256      0.00000000      0.00000000      0.00000000      0.00000000      0.00000000      0.00000000      0.00000000      0.00000000
 2
 config_type=Bi_Si_dimer energy=107.29345472889904 virial="524.21944386       0.00000000       0.00000000       0.00000000       0.00000000       0.00000000       0.00000000       0.00000000       0.00000000" cutoff=5.00000000 nneightol=1.20000000 pbc="T T T" Lattice="10.00000000       0.00000000       0.00000000       0.00000000       5.00000000       0.00000000       0.00000000       0.00000000       5.00000000" Properties=species:S:1:pos:R:3:force:R:3:Z:I:1:map_shift:I:3:n_neighb:I:1:local_energy:R:1:local_virial:R:9
 Si              0.00000000      0.00000000      0.00000000   -485.86192286      0.00000000      0.00000000      14       0       0       0       9     37.30494765    277.62383315      0.00000000      0.00000000      0.00000000      0.00000000      0.00000000      0.00000000      0.00000000      0.00000000
 Bi              1.07894737      0.00000000      0.00000000    485.86192286      0.00000000      0.00000000      83       0       0       0       9     69.98850708    246.59561071      0.00000000      0.00000000      0.00000000      0.00000000      0.00000000      0.00000000      0.00000000      0.00000000
 2
 config_type=Bi_Si_dimer energy=84.793186357416374 virial="422.85130474       0.00000000       0.00000000       0.00000000       0.00000000       0.00000000       0.00000000       0.00000000       0.00000000" cutoff=5.00000000 nneightol=1.20000000 pbc="T T T" Lattice="10.00000000       0.00000000       0.00000000       0.00000000       5.00000000       0.00000000       0.00000000       0.00000000       5.00000000" Properties=species:S:1:pos:R:3:force:R:3:Z:I:1:map_shift:I:3:n_neighb:I:1:local_energy:R:1:local_virial:R:9
 Si              0.00000000      0.00000000      0.00000000   -373.68254751      0.00000000      0.00000000      14       0       0       0       9     26.80218361    227.28900331      0.00000000      0.00000000      0.00000000      0.00000000      0.00000000      0.00000000      0.00000000      0.00000000
 Bi              1.13157895      0.00000000      0.00000000    373.68254751      0.00000000      0.00000000      83       0       0       0       9     57.99100274    195.56230143      0.00000000      0.00000000      0.00000000      0.00000000      0.00000000      0.00000000      0.00000000      0.00000000
 2
 config_type=Bi_Si_dimer energy=67.516909344269578 virial="339.47787410       0.00000000       0.00000000       0.00000000       0.00000000       0.00000000       0.00000000       0.00000000       0.00000000" cutoff=5.00000000 nneightol=1.20000000 pbc="T T T" Lattice="10.00000000       0.00000000       0.00000000       0.00000000       5.00000000       0.00000000       0.00000000       0.00000000       5.00000000" Properties=species:S:1:pos:R:3:force:R:3:Z:I:1:map_shift:I:3:n_neighb:I:1:local_energy:R:1:local_virial:R:9
 Si              0.00000000      0.00000000      0.00000000   -286.67020632      0.00000000      0.00000000      14       0       0       0       9     18.89210537    185.89808845      0.00000000      0.00000000      0.00000000      0.00000000      0.00000000      0.00000000      0.00000000      0.00000000
 Bi              1.18421052      0.00000000      0.00000000    286.67020632      0.00000000      0.00000000      83       0       0       0       9     48.62480398    153.57978565      0.00000000      0.00000000      0.00000000      0.00000000      0.00000000      0.00000000      0.00000000      0.00000000
 2
 config_type=Bi_Si_dimer energy=54.247219836633441 virial="273.04709921       0.00000000       0.00000000       0.00000000       0.00000000       0.00000000       0.00000000       0.00000000       0.00000000" cutoff=5.00000000 nneightol=1.20000000 pbc="T T T" Lattice="10.00000000       0.00000000       0.00000000       0.00000000       5.00000000       0.00000000       0.00000000       0.00000000       5.00000000" Properties=species:S:1:pos:R:3:force:R:3:Z:I:1:map_shift:I:3:n_neighb:I:1:local_energy:R:1:local_virial:R:9
 Si              0.00000000      0.00000000      0.00000000   -220.76148540      0.00000000      0.00000000      14       0       0       0       9     12.96537521    152.92552738      0.00000000      0.00000000      0.00000000      0.00000000      0.00000000      0.00000000      0.00000000      0.00000000
 Bi              1.23684210      0.00000000      0.00000000    220.76148540      0.00000000      0.00000000      83       0       0       0       9     41.28184463    120.12157183      0.00000000      0.00000000      0.00000000      0.00000000      0.00000000      0.00000000      0.00000000      0.00000000
 2
 config_type=Bi_Si_dimer energy=43.977702164363315 virial="221.82529533       0.00000000       0.00000000       0.00000000       0.00000000       0.00000000       0.00000000       0.00000000       0.00000000" cutoff=5.00000000 nneightol=1.20000000 pbc="T T T" Lattice="10.00000000       0.00000000       0.00000000       0.00000000       5.00000000       0.00000000       0.00000000       0.00000000       5.00000000" Properties=species:S:1:pos:R:3:force:R:3:Z:I:1:map_shift:I:3:n_neighb:I:1:local_energy:R:1:local_virial:R:9
 Si              0.00000000      0.00000000      0.00000000   -172.02778061      0.00000000      0.00000000      14       0       0       0       9      8.51825603    127.50532272      0.00000000      0.00000000      0.00000000      0.00000000      0.00000000      0.00000000      0.00000000      0.00000000
 Bi              1.28947368      0.00000000      0.00000000    172.02778061      0.00000000      0.00000000      83       0       0       0       9     35.45944614     94.31997261      0.00000000      0.00000000      0.00000000      0.00000000      0.00000000      0.00000000      0.00000000      0.00000000
 2
 config_type=Bi_Si_dimer energy=35.902114199408039 virial="183.61476286       0.00000000       0.00000000       0.00000000       0.00000000       0.00000000       0.00000000       0.00000000       0.00000000" cutoff=5.00000000 nneightol=1.20000000 pbc="T T T" Lattice="10.00000000       0.00000000       0.00000000       0.00000000       5.00000000       0.00000000       0.00000000       0.00000000       5.00000000" Properties=species:S:1:pos:R:3:force:R:3:Z:I:1:map_shift:I:3:n_neighb:I:1:local_energy:R:1:local_virial:R:9
 Si              0.00000000      0.00000000      0.00000000   -136.81100010      0.00000000      0.00000000      14       0       0       0       9      5.14720199    108.53981623      0.00000000      0.00000000      0.00000000      0.00000000      0.00000000      0.00000000      0.00000000      0.00000000
 Bi              1.34210526      0.00000000      0.00000000    136.81100010      0.00000000      0.00000000      83       0       0       0       9     30.75491221     75.07494663      0.00000000      0.00000000      0.00000000      0.00000000      0.00000000      0.00000000      0.00000000      0.00000000
 2
 config_type=Bi_Si_dimer energy=29.397279098282844 virial="155.96960749       0.00000000       0.00000000       0.00000000       0.00000000       0.00000000       0.00000000       0.00000000       0.00000000" cutoff=5.00000000 nneightol=1.20000000 pbc="T T T" Lattice="10.00000000       0.00000000       0.00000000       0.00000000       5.00000000       0.00000000       0.00000000       0.00000000       5.00000000" Properties=species:S:1:pos:R:3:force:R:3:Z:I:1:map_shift:I:3:n_neighb:I:1:local_energy:R:1:local_virial:R:9
 Si              0.00000000      0.00000000      0.00000000   -111.82726592      0.00000000      0.00000000      14       0       0       0       9      2.54030084     94.80756299      0.00000000      0.00000000      0.00000000      0.00000000      0.00000000      0.00000000      0.00000000      0.00000000
 Bi              1.39473684      0.00000000      0.00000000    111.82726592      0.00000000      0.00000000      83       0       0       0       9     26.85697826     61.16204451      0.00000000      0.00000000      0.00000000      0.00000000      0.00000000      0.00000000      0.00000000      0.00000000
 2
 config_type=Bi_Si_dimer energy=24.001392630992292 virial="136.39601355       0.00000000       0.00000000       0.00000000       0.00000000       0.00000000       0.00000000       0.00000000       0.00000000" cutoff=5.00000000 nneightol=1.20000000 pbc="T T T" Lattice="10.00000000       0.00000000       0.00000000       0.00000000       5.00000000       0.00000000       0.00000000       0.00000000       5.00000000" Properties=species:S:1:pos:R:3:force:R:3:Z:I:1:map_shift:I:3:n_neighb:I:1:local_energy:R:1:local_virial:R:9
 Si              0.00000000      0.00000000      0.00000000    -94.23724579      0.00000000      0.00000000      14       0       0       0       9      0.46642345     85.06343085      0.00000000      0.00000000      0.00000000      0.00000000      0.00000000      0.00000000      0.00000000      0.00000000
 Bi              1.44736842      0.00000000      0.00000000     94.23724579      0.00000000      0.00000000      83       0       0       0       9     23.53496918     51.33258270      0.00000000      0.00000000      0.00000000      0.00000000      0.00000000      0.00000000      0.00000000      0.00000000
 2
 config_type=Bi_Si_dimer energy=19.389496275521743 virial="122.52567319       0.00000000       0.00000000       0.00000000       0.00000000       0.00000000       0.00000000       0.00000000       0.00000000" cutoff=5.00000000 nneightol=1.20000000 pbc="T T T" Lattice="10.00000000       0.00000000       0.00000000       0.00000000       5.00000000       0.00000000       0.00000000       0.00000000       5.00000000" Properties=species:S:1:pos:R:3:force:R:3:Z:I:1:map_shift:I:3:n_neighb:I:1:local_energy:R:1:local_virial:R:9
 Si              0.00000000      0.00000000      0.00000000    -81.68378212      0.00000000      0.00000000      14       0       0       0       9     -1.23704439     78.12527726      0.00000000      0.00000000      0.00000000      0.00000000      0.00000000      0.00000000      0.00000000      0.00000000
 Bi              1.50000000      0.00000000      0.00000000     81.68378212      0.00000000      0.00000000      83       0       0       0       9     20.62654067     44.40039593      0.00000000      0.00000000      0.00000000      0.00000000      0.00000000      0.00000000      0.00000000      0.00000000
 2
 config_type=Bi_Si_dimer energy=6.7500492351970030 virial="91.05724289       0.00000000       0.00000000       0.00000000       0.00000000       0.00000000       0.00000000       0.00000000       0.00000000" cutoff=5.00000000 nneightol=1.20000000 pbc="T T T" Lattice="30.00000000       0.00000000       0.00000000       0.00000000      30.00000000       0.00000000       0.00000000       0.00000000      30.00000000" Properties=species:S:1:pos:R:3:force:R:3:Z:I:1:map_shift:I:3:n_neighb:I:1:local_energy:R:1:local_virial:R:9
 Si              0.00000000      0.00000000      0.00000000    -53.89102138      0.00000000      0.00000000      14       0       0       0       1     -5.56473920     62.03743378      0.00000000      0.00000000      0.00000000      0.00000000      0.00000000      0.00000000      0.00000000      0.00000000
 Bi              1.68965517      0.00000000      0.00000000     53.89102138      0.00000000      0.00000000      83       0       0       0       1     12.31478843     29.01980911      0.00000000      0.00000000      0.00000000      0.00000000      0.00000000      0.00000000      0.00000000      0.00000000
 2
 config_type=Bi_Si_dimer energy=.52572137977742872 virial="66.18105608       0.00000000       0.00000000       0.00000000       0.00000000       0.00000000       0.00000000       0.00000000       0.00000000" cutoff=5.00000000 nneightol=1.20000000 pbc="T T T" Lattice="30.00000000       0.00000000       0.00000000       0.00000000      30.00000000       0.00000000       0.00000000       0.00000000      30.00000000" Properties=species:S:1:pos:R:3:force:R:3:Z:I:1:map_shift:I:3:n_neighb:I:1:local_energy:R:1:local_virial:R:9
 Si              0.00000000      0.00000000      0.00000000    -36.21227591      0.00000000      0.00000000      14       0       0       0       1     -7.40112451     49.05489897      0.00000000      0.00000000      0.00000000      0.00000000      0.00000000      0.00000000      0.00000000      0.00000000
 Bi              1.82758621      0.00000000      0.00000000     36.21227591      0.00000000      0.00000000      83       0       0       0       1      7.92684589     17.12615711      0.00000000      0.00000000      0.00000000      0.00000000      0.00000000      0.00000000      0.00000000      0.00000000
 2
 config_type=Bi_Si_dimer energy=-3.2455731727658526 virial="36.94152697       0.00000000       0.00000000       0.00000000       0.00000000       0.00000000       0.00000000       0.00000000       0.00000000" cutoff=5.00000000 nneightol=1.20000000 pbc="T T T" Lattice="30.00000000       0.00000000       0.00000000       0.00000000      30.00000000       0.00000000       0.00000000       0.00000000      30.00000000" Properties=species:S:1:pos:R:3:force:R:3:Z:I:1:map_shift:I:3:n_neighb:I:1:local_energy:R:1:local_virial:R:9
 Si              0.00000000      0.00000000      0.00000000    -18.79481198      0.00000000      0.00000000      14       0       0       0       1     -8.15054715     33.70251562      0.00000000      0.00000000      0.00000000      0.00000000      0.00000000      0.00000000      0.00000000      0.00000000
 Bi              1.96551724      0.00000000      0.00000000     18.79481198      0.00000000      0.00000000      83       0       0       0       1      4.90497398      3.23901135      0.00000000      0.00000000      0.00000000      0.00000000      0.00000000      0.00000000      0.00000000      0.00000000
 2
 config_type=Bi_Si_dimer energy=-4.8408261541235555 virial="11.09221024       0.00000000       0.00000000       0.00000000       0.00000000       0.00000000       0.00000000       0.00000000       0.00000000" cutoff=5.00000000 nneightol=1.20000000 pbc="T T T" Lattice="30.00000000       0.00000000       0.00000000       0.00000000      30.00000000       0.00000000       0.00000000       0.00000000      30.00000000" Properties=species:S:1:pos:R:3:force:R:3:Z:I:1:map_shift:I:3:n_neighb:I:1:local_energy:R:1:local_virial:R:9
 Si              0.00000000      0.00000000      0.00000000     -5.27334584      0.00000000      0.00000000      14       0       0       0       1     -7.94374876     19.90381889      0.00000000      0.00000000      0.00000000      0.00000000      0.00000000      0.00000000      0.00000000      0.00000000
 Bi              2.10344828      0.00000000      0.00000000      5.27334584      0.00000000      0.00000000      83       0       0       0       1      3.10292260     -8.81160865      0.00000000      0.00000000      0.00000000      0.00000000      0.00000000      0.00000000      0.00000000      0.00000000
 2
 config_type=Bi_Si_dimer energy=-4.9942384575657792 virial="-4.41494787       0.00000000       0.00000000       0.00000000       0.00000000       0.00000000       0.00000000       0.00000000       0.00000000" cutoff=5.00000000 nneightol=1.20000000 pbc="T T T" Lattice="30.00000000       0.00000000       0.00000000       0.00000000      30.00000000       0.00000000       0.00000000       0.00000000      30.00000000" Properties=species:S:1:pos:R:3:force:R:3:Z:I:1:map_shift:I:3:n_neighb:I:1:local_energy:R:1:local_virial:R:9
 Si              0.00000000      0.00000000      0.00000000      1.96974597      0.00000000      0.00000000      14       0       0       0       1     -7.13868160     11.17803813      0.00000000      0.00000000      0.00000000      0.00000000      0.00000000      0.00000000      0.00000000      0.00000000
 Bi              2.24137931      0.00000000      0.00000000     -1.96974597      0.00000000      0.00000000      83       0       0       0       1      2.14444314    -15.59298601      0.00000000      0.00000000      0.00000000      0.00000000      0.00000000      0.00000000      0.00000000      0.00000000
 2
 config_type=Bi_Si_dimer energy=-4.5568380075871113 virial="-8.67139131       0.00000000       0.00000000       0.00000000       0.00000000       0.00000000       0.00000000       0.00000000       0.00000000" cutoff=5.00000000 nneightol=1.20000000 pbc="T T T" Lattice="30.00000000       0.00000000       0.00000000       0.00000000      30.00000000       0.00000000       0.00000000       0.00000000      30.00000000" Properties=species:S:1:pos:R:3:force:R:3:Z:I:1:map_shift:I:3:n_neighb:I:1:local_energy:R:1:local_virial:R:9
 Si              0.00000000      0.00000000      0.00000000      3.64449780      0.00000000      0.00000000      14       0       0       0       1     -6.15090928      8.01766822      0.00000000      0.00000000      0.00000000      0.00000000      0.00000000      0.00000000      0.00000000      0.00000000
 Bi              2.37931034      0.00000000      0.00000000     -3.64449780      0.00000000      0.00000000      83       0       0       0       1      1.59407127    -16.68905953      0.00000000      0.00000000      0.00000000      0.00000000      0.00000000      0.00000000      0.00000000      0.00000000
 2
 config_type=Bi_Si_dimer energy=-4.1164580429540587 virial="-6.39754137       0.00000000       0.00000000       0.00000000       0.00000000       0.00000000       0.00000000       0.00000000       0.00000000" cutoff=5.00000000 nneightol=1.20000000 pbc="T T T" Lattice="30.00000000       0.00000000       0.00000000       0.00000000      30.00000000       0.00000000       0.00000000       0.00000000      30.00000000" Properties=species:S:1:pos:R:3:force:R:3:Z:I:1:map_shift:I:3:n_neighb:I:1:local_energy:R:1:local_virial:R:9
 Si              0.00000000      0.00000000      0.00000000      2.54148903      0.00000000      0.00000000      14       0       0       0       1     -5.26408729      8.09486141      0.00000000      0.00000000      0.00000000      0.00000000      0.00000000      0.00000000      0.00000000      0.00000000
 Bi              2.51724138      0.00000000      0.00000000     -2.54148903      0.00000000      0.00000000      83       0       0       0       1      1.14762924    -14.49240278      0.00000000      0.00000000      0.00000000      0.00000000      0.00000000      0.00000000      0.00000000      0.00000000
 2
 config_type=Bi_Si_dimer energy=-3.8520090133266871 virial="-3.88890081       0.00000000       0.00000000       0.00000000       0.00000000       0.00000000       0.00000000       0.00000000       0.00000000" cutoff=5.00000000 nneightol=1.20000000 pbc="T T T" Lattice="30.00000000       0.00000000       0.00000000       0.00000000      30.00000000       0.00000000       0.00000000       0.00000000      30.00000000" Properties=species:S:1:pos:R:3:force:R:3:Z:I:1:map_shift:I:3:n_neighb:I:1:local_energy:R:1:local_virial:R:9
 Si              0.00000000      0.00000000      0.00000000      1.46465096      0.00000000      0.00000000      14       0       0       0       1     -4.55748631      8.28815112      0.00000000      0.00000000      0.00000000      0.00000000      0.00000000      0.00000000      0.00000000      0.00000000
 Bi              2.65517241      0.00000000      0.00000000     -1.46465096      0.00000000      0.00000000      83       0       0       0       1      0.70547729    -12.17705193      0.00000000      0.00000000      0.00000000      0.00000000      0.00000000      0.00000000      0.00000000      0.00000000
 2
 config_type=Bi_Si_dimer energy=-3.6472517645791180 virial="-4.87566679       0.00000000       0.00000000       0.00000000       0.00000000       0.00000000       0.00000000       0.00000000       0.00000000" cutoff=5.00000000 nneightol=1.20000000 pbc="T T T" Lattice="30.00000000       0.00000000       0.00000000       0.00000000      30.00000000       0.00000000       0.00000000       0.00000000      30.00000000" Properties=species:S:1:pos:R:3:force:R:3:Z:I:1:map_shift:I:3:n_neighb:I:1:local_energy:R:1:local_virial:R:9
 Si              0.00000000      0.00000000      0.00000000      1.74560910      0.00000000      0.00000000      14       0       0       0       1     -3.96316710      6.75286892      0.00000000      0.00000000      0.00000000      0.00000000      0.00000000      0.00000000      0.00000000      0.00000000
 Bi              2.79310345      0.00000000      0.00000000     -1.74560910      0.00000000      0.00000000      83       0       0       0       1      0.31591534    -11.62853571      0.00000000      0.00000000      0.00000000      0.00000000      0.00000000      0.00000000      0.00000000      0.00000000
 2
 config_type=Bi_Si_dimer energy=-3.3215516881748721 virial="-8.97698621       0.00000000       0.00000000       0.00000000       0.00000000       0.00000000       0.00000000       0.00000000       0.00000000" cutoff=5.00000000 nneightol=1.20000000 pbc="T T T" Lattice="30.00000000       0.00000000       0.00000000       0.00000000      30.00000000       0.00000000       0.00000000       0.00000000      30.00000000" Properties=species:S:1:pos:R:3:force:R:3:Z:I:1:map_shift:I:3:n_neighb:I:1:local_energy:R:1:local_virial:R:9
 Si              0.00000000      0.00000000      0.00000000      3.06273647      0.00000000      0.00000000      14       0       0       0       1     -3.38155806      3.69455621      0.00000000      0.00000000      0.00000000      0.00000000      0.00000000      0.00000000      0.00000000      0.00000000
 Bi              2.93103448      0.00000000      0.00000000     -3.06273647      0.00000000      0.00000000      83       0       0       0       1      0.06000637    -12.67154241      0.00000000      0.00000000      0.00000000      0.00000000      0.00000000      0.00000000      0.00000000      0.00000000
 2
 config_type=Bi_Si_dimer energy=-2.8070485347818925 virial="-13.16218124       0.00000000       0.00000000       0.00000000       0.00000000       0.00000000       0.00000000       0.00000000       0.00000000" cutoff=5.00000000 nneightol=1.20000000 pbc="T T T" Lattice="10.00000000       0.00000000       0.00000000       0.00000000      10.00000000       0.00000000       0.00000000       0.00000000      10.00000000" Properties=species:S:1:pos:R:3:force:R:3:Z:I:1:map_shift:I:3:n_neighb:I:1:local_energy:R:1:local_virial:R:9
 Si              0.00000000      0.00000000      0.00000000      4.28880062      0.00000000      0.00000000      14       0       0       0       1     -2.77016413      0.63908773      0.00000000      0.00000000      0.00000000      0.00000000      0.00000000      0.00000000      0.00000000      0.00000000
 Bi              3.06896552      0.00000000      0.00000000     -4.28880062      0.00000000      0.00000000      83       0       0       0       1     -0.03688440    -13.80126897      0.00000000      0.00000000      0.00000000      0.00000000      0.00000000      0.00000000      0.00000000      0.00000000
 2
 config_type=Bi_Si_dimer energy=-2.1840126641253841 virial="-14.60401834       0.00000000       0.00000000       0.00000000       0.00000000       0.00000000       0.00000000       0.00000000       0.00000000" cutoff=5.00000000 nneightol=1.20000000 pbc="T T T" Lattice="10.00000000       0.00000000       0.00000000       0.00000000      10.00000000       0.00000000       0.00000000       0.00000000      10.00000000" Properties=species:S:1:pos:R:3:force:R:3:Z:I:1:map_shift:I:3:n_neighb:I:1:local_energy:R:1:local_virial:R:9
 Si              0.00000000      0.00000000      0.00000000      4.55394121      0.00000000      0.00000000      14       0       0       0       1     -2.16130723     -0.99312261      0.00000000      0.00000000      0.00000000      0.00000000      0.00000000      0.00000000      0.00000000      0.00000000
 Bi              3.20689655      0.00000000      0.00000000     -4.55394121      0.00000000      0.00000000      83       0       0       0       1     -0.02270543    -13.61089573      0.00000000      0.00000000      0.00000000      0.00000000      0.00000000      0.00000000      0.00000000      0.00000000
 2