 17
 config_type=Bi_double virial="45.15664456     -17.56201774     -17.90352275     -17.56201774      52.04114792      -7.72700319     -17.90352275      -7.72700319      67.71310253" energy=9.3603514579979628 cutoff=5.00000000 nneightol=1.20000000 pbc="T T T" Lattice="7.81742706       0.00000000       0.00000000       3.85535924       6.66638994       0.00000000       3.88599570       2.24234268       6.28434974" Properties=species:S:1:pos:R:3:force:R:3:Z:I:1:map_shift:I:3:n_neighb:I:1:local_energy:R:1:local_virial:R:9
 Si             -0.08659670      0.10526624      0.03754270     -3.34185727     -1.82545803     -1.07537711      14       0       0       0      33     -6.73506264     26.79412784     10.00493611      0.93610763     10.95462472      7.38685497      1.19735959      4.53824786      2.47466436      6.12391011
 Si              1.90283385      1.09246415      3.12824290      0.11258555      0.11989086      4.73646317      14       0       0       0      35     -5.55528311      3.43732332     -0.51407455     -1.32433072     -0.55429099      3.52271826     -0.05048001     -1.92389292      0.15090581     26.41415326
 Si              3.81536497      2.22397065      3.97257490      0.00788120      0.12940307     -0.09934696      14       0       0      -1      35     -1.89236469     12.47501342      5.11946670      3.28364953      6.10449008      5.93243559      1.85223366      5.13271135      2.74772875      5.78118161
 Si              1.96098112      3.38435299     -0.00374663     -0.38266208      5.32285203      0.00945932      14       0      -1       0      34     -9.59958893      1.95939632     -2.84261201     -2.07661115     -5.25363734     27.94380994     -1.25948214     -2.27983159     -4.20356399      6.98604332
 Si              3.93097658      4.40751133      0.84107093     -0.08696712     -0.02608669      0.15808235      14       0      -1       0      35     -1.17859221      1.39921900      0.83061249     -0.67032988      2.41869675      3.70171511     -0.00612630      0.67175900     -0.28819535      0.31743236
 Si              3.83118647      4.46264675      3.11230968     -0.66696552      0.19490681     -0.33323513      14       0      -1       0      33     -1.71145096     12.11201648      0.04142045      3.85746324     -1.28475529      2.13944598     -0.79035550      4.48442910     -0.12103531      3.03443929
 Si              5.73650637      5.51079747      3.93966440     -3.88902257      5.93332409     -2.60306239      14       0      -1      -1      35     -5.47837446      3.63991650     -7.48592632      2.27200111    -10.33828073     13.69420544     -8.43610519      3.05530861     -7.16678898     10.12430006
 Si              3.89667744     -0.02625147     -0.11072413      6.28225169     -5.23794043      1.95290350      14      -1       0       0      32     -9.85719446     18.77620534    -13.87404976      0.77322972    -12.89295330     11.18389101     -3.17602636     -1.51764119     -1.76320647     11.46674140
 Si              5.76575760      1.08619393      0.82454338      0.22678740      0.21109489      0.10929414      14      -1       0       0      37     -1.23096642      2.84710017      1.44439805      1.75994057     -2.21948304      0.01515993     -0.91426621      1.07446804      1.04990494      2.46539130
 Si              5.84820081      1.17848898      3.18972714     -0.07936199     -0.57903241     -0.31140123      14       0       0      -1      35     -3.09052010      4.96278427      3.34419159      1.88125409      5.96322097      7.40133819      3.26514423      3.86501524      4.34980020      3.06918157
 Si              7.91291720      2.24229964      3.89125432      9.12171641    -10.13974543     -5.97379894      14      -1       0      -1      33     -5.18365715      5.42351195    -10.13587816     -6.74108185     -6.99115343     11.36837546      5.52867345     -5.68667740      6.25303136      8.98829664
 Si              5.86891690      3.32448149      0.12984303      0.10963603     -0.00054029      0.02300262      14       0       0       0      36     -0.11836042      2.80378240      1.44388648      1.10346565      1.06812205      1.76557548      0.44885672      0.44353326      0.24900103      0.72207695
 Si              7.81675908      4.50938732      0.75768396     -0.40629043     -0.39164793     -0.02061548      14      -1      -1       0      35     -0.76221260      1.23438338     -1.87271106     -0.03261876     -1.54706847      2.64275487      0.06138962     -0.02217328      0.75860519     -0.12397903
 Si              7.76410780      4.42828817      3.08764059      6.74814030      4.46005639     -8.88119346      14      -1       0       0      32     -4.51234373      6.45482893      3.52508939     -9.23379061      3.22953436      5.51234453     -6.58442604     -9.34307760     -7.10385044     13.05091178
 Si              9.70998909      5.54181493      4.00202821     -0.05342616     -0.09821421      0.02799246      14      -1      -1      -1      35     -0.98361368      6.65485527      3.19578971      0.64851080      3.04920250      3.27101919      0.31334208     -2.13341638     -1.55930339     -0.02100986
 Bi              1.99370068      1.11013337      0.77667803     -3.18911838     -0.84648549      7.00807150      83       0       0       0      33     25.59470063    -34.27956879     -0.43427141     -3.19549358      0.52106857    -35.93893881      0.45264518     -0.85917965     -0.95419025    -25.92877997
 Bi              6.64097687      3.62411453      4.69516133    -10.51332707      2.77362276      5.27276163      83       0       0      -1      34     41.65523639    -31.53825125     -9.35228545    -11.14488856     -9.78935514    -19.50155723      0.37062004    -17.40310520     -2.60051065     -4.75718824
 17
 config_type=Bi_double virial="52.76608551     -10.75500366      -9.28922410     -10.75500366      50.49143567      -2.58866511      -9.28922410      -2.58866511      45.63919121" energy=5.7034876669400116 cutoff=5.00000000 nneightol=1.20000000 pbc="T T T" Lattice="7.79246196       0.00000000       0.00000000       3.89628835       6.69490561       0.00000000       3.86020059       2.23226553       6.28813214" Properties=species:S:1:pos:R:3:force:R:3:Z:I:1:map_shift:I:3:n_neighb:I:1:local_energy:R:1:local_virial:R:9
 Si             -0.12114329      0.00731941      0.04598219     -0.88200187     -2.19886677      0.90640487      14       0       0       0      33     -8.27483571     16.94195475      4.48418202      7.59872872      5.63752613      7.54152832     -0.81647907      5.58971234     -0.05484459      9.60533103
 Si              1.99601849      1.05870873      3.04595965      0.15318438     -1.76230253      5.96923335      14       0       0       0      33     -9.02069596      3.39352023      1.18665055      0.60461728      3.18115979      9.43043741      2.00807685      1.38331342      3.40524630     28.41843711
 Si              3.89035702      2.26214631      3.89473372      7.41673763     -5.45217111     -2.48318634      14       0       0      -1      33     -4.73756021     10.66034619     -6.08884544      1.65455777     -3.63443953      9.34007486      2.35544389     -0.13913366      4.43355214      8.19604387
 Si              2.03384192      3.35144613     -0.05546170      0.08688599      3.44803742     -1.12922924      14       0      -1       0      35     -5.53604283      1.34771409      0.47401924      0.24098630      0.63872117     19.82579913     -7.20134803      0.16584101     -6.71486317      4.24022759
 Si              3.90322212      4.47235116      0.75980215     -0.11250455     -0.17436718     -0.27042757      14       0      -1       0      36     -0.71195521      1.79742339      2.23487981     -0.25419897      1.68466180      4.20282693     -0.25620028      0.31815112     -0.16630814      0.79930970
 Si              3.73596756      4.41467589      3.10617883      5.89792328      3.49406980     -5.08158473      14       0       0       0      33     -4.27810863      9.75359534      4.68719124     -8.06512400      4.03152110      4.33441470     -4.37682349     -7.74065101     -4.78390260      6.08647827
 Si              5.75310678      5.57678397      3.82005907      0.04870301      0.01277872      0.25027854      14       0      -1      -1      34     -0.99814823      1.82499952      1.05946018     -0.02076229      0.79725349      3.38282292     -2.19843769     -0.90060181     -3.51434030      4.23381801
 Si              3.78612092      0.01176542     -0.18564810      3.87088725     -2.90697392     -2.02566559      14       0       0       0      33     -8.75421834     23.76761686     -6.02345630    -12.49716055     -6.39150151     10.15735772      2.65178429    -12.30577363      2.14923287     11.54516841
 Si              5.86320309      1.15500015      0.74645026     -0.23569388      0.01231722      2.01522641      14      -1       0       0      32     -3.76281999      9.18831376      0.53744356     -0.77734867      0.49200008      3.40732243     -0.33781730     -3.72623065     -1.47560611     12.20805889
 Si              5.80036911      1.02256444      3.07037118      0.21833498     -0.48665928     -0.08662991      14      -1       0       0      35      0.03326676      2.70046509     -0.03696873     -0.24610816     -0.14510871      0.59648747      0.56271013     -0.14892814      0.53507656      1.88643033
 Si              7.80638264      2.25602687      3.91132834     -1.48155961     -0.84826864     -0.54914883      14      -1       0      -1      34     -3.91295174     12.55393935      2.92479436     -2.72905448      3.19284352      6.60441005      1.47305214     -0.42415069      2.63331345      6.17848972
 Si              5.80211697      3.30623398      0.01700268     -0.24883158      1.33219956      1.29235932      14       0       0       0      33     -3.80085253      0.87783618     -0.78166506     -1.47676790     -2.18681814      3.73831155      3.82711120     -2.34168321      1.69346638      5.58958811
 Si              7.80129811      4.56283592      0.71302082      0.17099820     -0.20710476     -0.04351912      14      -1      -1       0      35     -0.91350874      2.00832439     -3.09835161      0.38438845     -2.38358166      4.94450942     -0.55643217     -0.07137355      0.40283486      0.48180437
 Si              7.83552386      4.47566905      3.13295101     -1.49754192      0.91531344     -0.86083491      14      -1      -1       0      33     -3.63234898      6.66103675     -0.13838123      1.32049963     -1.83177947      1.37545748     -0.62226909      3.10756279     -0.39850509      0.17690350
 Si              9.57924196      5.63050835      3.89424647     -2.20568694      7.63940145     -1.91027841      14      -1      -1      -1      32     -4.27378213      3.64783178     -3.12058406      0.48446186     -5.18558576     14.03976759     -1.09062071      1.38571440     -2.72522791      3.34813639
 Bi              2.00520594      1.07724654      0.79646209     -2.32369065      0.54663516     -2.17185286      83       0       0       0      34     23.52619532    -32.90716752     -0.00752898      0.41626821     -0.74092884    -38.26662443      3.55576635      2.58033212      2.72267137    -33.07650119
 Bi             -1.66408636     -3.17305199      4.45188318     -8.87614374     -3.36403857      6.17885503      83       0       1      -1      30     44.75185483    -21.45166465     -9.04784322      4.07279268     -7.91094711    -14.16346788     -1.56618215      3.97867505     -0.73046112    -24.27853288
 17
 config_type=Bi_double virial="47.95020468      -5.68094259      -4.09981833      -5.68094259      61.23798421      -3.30410001      -4.09981833      -3.30410001      37.88962578" energy=4.0059992465678445 cutoff=5.00000000 nneightol=1.20000000 pbc="T T T" Lattice="7.77778142       0.00000000       0.00000000       3.87931131       6.74520547       0.00000000       3.85890487       2.22612946       6.39212160" Properties=species:S:1:pos:R:3:force:R:3:Z:I:1:map_shift:I:3:n_neighb:I:1:local_energy:R:1:local_virial:R:9
 Si              0.02104224      0.00592384      0.01896136     -3.50377187     -0.36727022     -0.21530020      14       0       0       0      31     -8.37665083     16.56895926      8.62675989      5.90339345      7.89712021      8.79098383      7.89913666      5.46161444      5.65770404     10.79346825
 Si              1.90954363      1.12743608      3.17701201     -2.11104923      0.85365392      3.27439591      14       0       0       0      32     -8.90028443      6.57615193     -0.33019779      2.49363701     -1.66345006      2.90940727     -1.19771330      1.51881844      0.24766525     24.49624953
 Si              3.84829648      2.20455511      4.14001901     -0.79480024     11.26007103     -1.72220018      14       0       0      -1      32     -4.74469386      4.63643366     -1.04820695      2.13192761     -0.53423704     16.66903378     -0.45392100      1.47806683     -1.03592943      7.06655697
 Si              1.97765425      3.38793111      0.02681196     -0.49051587      2.95689398     -0.68178108      14       0      -1       0      31     -8.66359465      5.60187795      3.38839799     -3.85005988      3.10590094     23.49987384     -9.73530588     -3.12693461     -9.53186006     10.63206669
 Si              3.91521942      4.48490687      0.79513608      0.09387220     -0.15846317      1.60514087      14       0      -1       0      32     -3.65723462      5.23199319      2.12588601     -0.57659594      2.10237113      8.33664274     -0.98135274     -0.54416533     -1.89166344     13.73746550
 Si              3.84349169      4.52389491      3.15571980      0.09251707      0.17894096     -0.34858115      14       0      -1       0      33      0.05316365      1.93405236      0.20679822     -0.14137217      0.19446465      2.64409876     -0.26577162     -0.17171256     -0.28716415      2.27585907
 Si              5.70637371      5.54712453      3.98066788     -2.17494524     -1.41075261     -0.52908918      14       0      -1      -1      32     -3.95785535      9.96646523      5.08960042     -0.11960936      4.35067439      8.66201665     -2.80292517      1.10178833     -1.89552528      6.86288842
 Si              3.82647333      0.07311004     -0.09605493      4.54111547     -2.37764354     -2.17042150      14       0       0       0      33     -5.66866496     18.71711956     -9.10661128     -7.70703464     -9.21455818      7.07782176      4.37948043     -7.15561635      4.00556929      6.18096478
 Si              5.80901875      1.09522063      0.77608129     -0.02223619     -0.06011005     -0.10772510      14      -1       0       0      34     -0.80893745      6.48699408     -0.11099450      1.04592438     -0.47714477      0.35736079      0.77770658      0.70606593      0.72198914     -1.18053875
 Si              5.80347982      1.11528482      3.12649809      3.18291446      1.57998044     -2.42453316      14      -1       0       0      31     -4.32582354      4.92793348      2.09669710     -4.79350943      1.91613354      1.79444334     -2.08930802     -2.94704830     -1.29088936      1.37198700
 Si              7.74924374      2.32217153      4.05165651      0.21875584      0.26079574      0.26312667      14      -1       0      -1      34     -0.68081246      1.53840894     -1.32457739     -2.51222631     -1.33046465      0.72194401      1.52481030     -1.87201273      1.22948271      4.37984857
 Si              5.84104005      3.24237792      0.12003405      0.68356590     -0.81736304      0.85967822      14      -1       0       0      32     -3.04339743      4.88070290     -3.57114599      4.93404827     -2.54997902      4.65928591     -4.11819445      3.17132233     -3.88432997      8.35994311
 Si              7.81725762      4.61992421      0.84032664      0.04534093      0.00841316      0.16464554      14      -1      -1       0      34     -0.85938730      1.77934702     -3.31383320      0.06040438     -2.31266341      4.29532420     -1.26306618     -0.51115055     -0.68047336     -0.80005748
 Si              7.71556965      4.57617832      3.21862538     -0.04451691     -2.10241781     -1.14128484      14       0      -1      -1      31     -3.71976532      1.51402265      0.02603657     -0.52502849      1.31831466      6.49685004      2.75194463      0.20883252      2.36963650     -0.32794186
 Si              9.62590134      5.60142670      4.09324675      5.16648091     -4.12908190     -0.94536714      14      -1      -1      -1      32     -4.39134436     10.61922164     -6.21871578     -0.64383341     -6.47129304      8.22399295      0.52685109     -1.78767673      1.28588933      3.63965979
 Bi              1.99047636      1.10267939      0.81873469     -1.45055811      0.97516843     -0.11152236      83       0       0       0      34     22.85177936    -35.04970946      0.22898791      3.37356737      0.53642661    -34.00590053     -1.70341875      4.46219520     -1.69958476    -31.74783764
 Bi             -7.67318817     -2.08256329     -1.85469730     -3.43216910     -6.65081531      4.23081868      83       1       0       0      30     42.89950281    -17.97976971     -2.44582383     -3.17345118     -2.54855856     -9.89519513      3.44694741     -4.09220519      3.37538355    -27.85095616
 17
 config_type=Bi_double virial="54.49392870       1.80570027      -1.74257371       1.80570027      51.52758578      -0.10744034      -1.74257371      -0.10744034      31.73704222" energy=3.6675943562889208 cutoff=5.00000000 nneightol=1.20000000 pbc="T T T" Lattice="7.80790015       0.00000000       0.00000000       3.90818538       6.73440800       0.00000000       3.86754292       2.25089138       6.28934891" Properties=species:S:1:pos:R:3:force:R:3:Z:I:1:map_shift:I:3:n_neighb:I:1:local_energy:R:1:local_virial:R:9
 Si             -0.02253804     -0.00113706     -0.05723384     -2.97890004     -1.83764510     -0.35982094      14       0       0       0      31     -8.75778622     18.07639753      8.95862663     -2.38949810      8.79951278      7.62242033     -1.52706502      2.70717556      1.01265305     12.52498325
 Si              1.93709754      1.14449700      3.23132205      0.26276804      0.15372218      3.43515375      14       0       0      -1      36     -5.17939892      3.02864291     -0.89862961     -0.78324242     -0.88772998      3.76554573      0.10974672     -1.32151599      0.57325432     25.22512578
 Si              3.80605993      2.20631256      4.06527372     -8.58920984     -5.16516528      1.12876822      14       0       0      -1      32     -5.47175774     16.33702025      8.41606409     -0.62883816      8.28479332      7.46968605     -0.37922967      3.03466809      1.89417464      7.28779922
 Si              1.99846791      3.39515631     -0.04137827      0.33500778      3.57339976     -0.70025090      14       0      -1       0      34     -8.64934307      2.81709091      1.39378370      1.41015363      2.09120669     25.82914923      3.30348001      1.79497162     -1.78172896     13.39287826
 Si              3.97261557      4.46025058      0.79053428      0.25909575     -0.19130348      0.24291408      14       0      -1       0      35     -1.13763972      2.94167413      2.41111716      3.31179753      2.45497591      5.68260981     -2.14324004      0.74452156     -0.68135973      3.64916534
 Si              3.88452563      4.44371482      3.01504376     -4.36873579      2.53157298     -3.22447411      14       0       0       0      32     -4.52096675      8.69725729     -4.28200361      5.60734649     -4.37131041      5.63450636     -3.69907830      5.61747604     -3.56252867      2.24941683
 Si              5.85772518      5.64312267      3.88330178      0.83636251      5.71541668     -0.28698281      14       0      -1      -1      34     -4.99988514      3.03415352      2.19674666     -0.57143006      2.44141484     20.47253475     -1.38091095     -0.72910976     -5.31929761      8.90494381
 Si              3.90316407      0.02633124     -0.13070208      3.67085957     -2.09390794     -1.34315521      14      -1       0       0      32     -8.99445920     21.98470355     -9.95075411      1.21156478    -10.53970391      7.98595404      0.17562111     -2.10390491      2.00829715     12.00114499
 Si              5.82930317      1.10779325      0.80125804     -0.13072091      0.33790106      0.25639283      14      -1       0       0      36     -1.06906630      6.47134802      0.35784975      0.18144910     -0.29546595      1.54878702      3.51159453     -0.27931956      1.03820314      2.71433221
 Si              5.90809067      1.11986216      3.17465110      0.96743285     -4.42155668     -1.98955134      14      -1       0      -1      33     -4.09264191      2.07513294     -2.05424909     -0.73923100     -1.51469315     10.64982224      5.02608225     -0.68685259      6.32868030      1.39025359
 Si              7.80132711      2.30855075      3.78608798      4.14484526     -1.92507968     -0.61971652      14      -1       0      -1      33     -4.70934500     16.74078458     -5.35694876     -1.75012022     -6.88035575      5.74901076      0.49274456     -5.13504299      2.10808762      8.73888154
 Si              5.83338971      3.40991695      0.04207738     -0.03390288      0.09612194     -0.02212141      14       0      -1       0      36     -0.41092407      0.69571012      0.13241507     -0.83165960      0.08442918      0.96707304     -0.20737918     -0.97383646     -0.16957510      8.28506142
 Si              7.87053640      4.63504070      0.76497159     -0.19476890     -0.10876604      0.08710847      14      -1      -1       0      34     -0.82974613      1.75260837     -3.25407422     -0.63738985     -2.12291945      4.62416960     -0.88057990     -0.42119171      0.72008256      0.23140695
 Si              7.75176461      4.60137809      3.13316556      2.14339391      1.58710923     -0.95058680      14       0      -1       0      31     -3.79493708      6.95403578      2.16391583     -0.93528368      2.54432273      4.59612968     -1.33332064     -2.38778817     -2.09051480     -0.84708064
 Si              9.63642659      5.62867676      3.96526640     -0.34727861     -0.05958384      0.61238424      14      -1      -1      -1      34      0.01956464      0.57736732      0.09836261     -0.03908549      0.00080494     -0.01990543      0.00693743     -0.11832451     -0.07787048      0.50795932
 Bi              2.00557589      1.10808043      0.82478292     -0.64366563      0.20217851      1.46193380      83       0       0       0      33     22.10411193    -36.68687848     -0.16966444     -0.00424610     -0.32298637    -38.63470670      0.83395652      2.20595016      0.20813770    -48.28258519
 Bi              5.69898311     -5.64890012     -2.23691011      4.66741692      1.60558572      2.27200465      83      -1       1       0      32     44.16181505    -21.00312005      1.64314260     -4.15486056      2.03940485    -22.41520071     -2.01679979     -3.69045009     -2.31613548    -26.23664446
 17
 config_type=Bi_double virial="72.87308706      -8.43639366      -5.62737743      -8.43639366      25.26455407      13.46296715      -5.62737743      13.46296715      71.59555664" energy=9.5408333945152233 cutoff=5.00000000 nneightol=1.20000000 pbc="T T T" Lattice="7.75783199       0.00000000       0.00000000       3.88316291       6.66705260       0.00000000       3.87531181       2.22276167       6.32656045" Properties=species:S:1:pos:R:3:force:R:3:Z:I:1:map_shift:I:3:n_neighb:I:1:local_energy:R:1:local_virial:R:9
 Si              0.00598606      0.03153929      0.00902982      9.98717163     -3.96510339      9.21668305      14       0       0       0      34     -9.17235625     29.95304259      4.21658964     16.22913626      5.06276323      3.32052024      2.87561186     15.84072846      2.17950882     14.89526819
 Si              2.01580929      1.06117573      3.18231251     -0.15795040     -2.74844771      2.36330655      14       0       0      -1      32     -9.05154794      3.95783726      0.79614311      0.63087336      1.84726220      5.84904219      9.00683806      1.18071113     10.50809575     34.03318975
 Si              3.86719115      2.18561025      3.96257661     14.88265522     -2.46556888    -11.73145373      14       0       0      -1      33     -4.27380568     13.66420761      2.23206796     -7.09361516      0.51895992      0.77510190      3.44745844     -6.34874725      2.72685637     12.16032437
 Si              1.96647015      3.35460604     -0.00257010     -0.02866461      2.01478332     -0.64031120      14       0      -1       0      36     -5.54345395      2.33073803      0.88221905      0.32146975      0.97421398     23.94589890     -8.76069812      0.27626617     -8.38758228      5.62570247
 Si              3.94784407      4.31534107      0.78309470      0.38244925     -0.04232952     -0.10325885      14       0      -1       0      35     -1.45144421      3.69746771      0.03395495      1.67228869      1.46175685      8.18516194     -1.93729745      0.84370899     -2.60875368      2.50860837
 Si              3.88500524      4.44790765      3.21219214      0.29264530      0.61781387     -0.60872086      14       0       0      -1      33     -2.23121648      2.41393037      4.76337556     -3.03563810      2.34725717      9.88974692     -5.51895998     -1.80235517     -6.89482537      6.47837160
 Si              5.73147448      5.45587594      3.95169278     -0.24781633     -0.39163767     -0.18084608      14       0      -1      -1      36     -1.10616209      0.01522487      0.98565767     -0.44079536      0.37001561      5.24277497     -1.96870409     -0.05617474     -0.43262263      5.00078106
 Si              3.80952379      0.03593204     -0.13380834      3.16301132     -2.88008086     -1.65068597      14       0       0       0      33     -8.98267601     28.10725752     -7.57526770    -11.54763050     -6.65952516      5.79291204      5.04494363    -12.07946873      4.26884365     10.68659374
 Si              5.74800422      1.11533298      0.87307609     -1.73560750      2.92265258      5.90539526      14      -1       0       0      34     -4.47335039      6.31394979     -0.63827102     -2.36669924     -1.83881004      2.65263042      8.42539194     -4.80778630     10.02224905     11.49496327
 Si              5.88042572      1.10258713      3.08654712      0.45830499     -0.51314416     -0.05869650      14      -1       0       0      35      0.01559724      4.16657718     -0.61118818      0.02758444     -0.73589891      0.57168205      0.23905519     -0.08276410      0.25197868      0.25018621
 Si              7.72116061      2.13654072      3.95316418     -2.07478642      0.24136140     -0.93568073      14      -1       0      -1      33     -3.86896064     12.00016595     -2.50743741      2.10638942     -1.47672312     -0.23051999      1.75378641      2.87128967      1.65116033      8.72703755
 Si              5.84162719      3.27087922      0.12556182     -0.23288180      0.63692071      0.11733946      14      -1       0       0      33     -1.86546945      2.14170668     -2.21197227     -0.63581290     -2.11958237     13.49372528      1.46693981     -0.76981841      3.23620851      1.91324725
 Si              7.81488625      4.58059407      0.80449615     -0.05381381     -0.03820859      0.04158980      14      -1      -1       0      35     -1.58880077      3.46398924     -0.60517816     -1.62477569     -1.18785697      6.55061814     -2.13328437     -1.50297844     -1.41398299      1.09762091
 Si              7.86152885      4.55883821      3.07182506     -0.04539283      0.24404267     -0.00498081      14      -1      -1       0      36     -0.94474358      2.57461511     -2.67830988      1.53159464     -1.62468162      3.16340067     -1.11710985      0.83573704     -1.43545779      1.97877714
 Si              9.68553598      5.53400963      3.97794434     -0.05764962     -0.02025134      0.00604741      14      -1      -1      -1      36     -1.17943302      2.10597665      0.50892528     -0.70266663     -2.46552202     13.28039961     -3.97908699      0.35224738     -3.60612813      4.36461392
 Bi              2.02916574      1.00917850      0.90067267     -1.80812765      1.83461708     -1.64985144      83       0       0       0      36     23.03627200    -31.92554005      0.16510692      0.73590227     -0.56026057    -34.60848969      2.45680137      2.76194233      0.97061085    -31.48159255
 Bi             -1.57425802     -4.17115982      5.10544925    -22.72354673      4.55258048     -0.08587535      83       0       1      -1      36     42.22238462    -12.10805944     -6.19280920     -1.43498269     -2.34976184    -42.61005151      4.16128130     -3.13991546      2.42680801    -18.13813661
 17
 config_type=Bi_double virial="57.36306523      -5.52042022      -7.84252885      -5.52042022      75.83484983      -2.95964899      -7.84252885      -2.95964899      35.24790931" energy=8.5447302979964714 cutoff=5.00000000 nneightol=1.20000000 pbc="T T T" Lattice="7.79701321       0.00000000       0.00000000       3.85640210       6.74417412       0.00000000       3.90939061       2.22514784       6.31979906" Properties=species:S:1:pos:R:3:force:R:3:Z:I:1:map_shift:I:3:n_neighb:I:1:local_energy:R:1:local_virial:R:9
 Si              0.10690050     -0.03850890      0.02170117     -4.07040578     -2.48832829     -1.85501230      14       0       0       0      34     -5.69736869     16.00335387     10.24045642      6.26601661      9.46434083      7.83639986      3.93175122      5.39415623      4.56277186      3.88256190
 Si              1.98953862      1.02224257      3.19849892      3.94876335    -18.46108343      5.56348958      14       0       0      -1      33    -10.29947938      7.47669667     -3.97521366      0.66753188     -4.78917936     21.81050147      3.97472907      2.19440338     -4.81966994     20.47895957