 15
 config_type=Bi_vac virial="12.02064340      -3.72948797      -3.96549363      -3.72948797      11.04861191       0.32829317      -3.96549363       0.32829317      21.79673993" energy=-3.0015543372810933 cutoff=5.00000000 nneightol=1.20000000 pbc="T T T" Lattice="7.56311614      -0.13901802      -0.10303045       3.76951288       6.57567351      -0.17962856       3.72835779       2.11623311       6.19775491" Properties=species:S:1:pos:R:3:force:R:3:Z:I:1:map_shift:I:3:n_neighb:I:1:local_energy:R:1:local_virial:R:9
 Si              1.68248442      0.89963462      2.97878433     -0.20232067     -0.16632039     -0.09671826      14       0       0       0      32     -1.21531523      2.29404342      1.38797054      3.10822516      1.51956867      0.64930627      1.68459420      5.37604550      2.93421993      7.79620607
 Si              3.55687954      1.94531597      3.83400222      0.00027658     -0.41639024     -7.19183589      14       0       0      -1      31     -6.15461925      2.98537537      0.56745661      0.47582389      0.55720696      2.85636940      1.03769426      0.22467268      2.62580935     31.12225209
 Si              1.73731732      3.25463498     -0.18858053     -0.20315817     -0.29229686      0.02234179      14       0       0       0      32     -0.89115257      2.12994831      2.23380118      0.53195346      5.34117936      7.00047295      0.37964686     -0.30075535     -0.89439841     -0.15436202
 Si              3.64323202      4.17046607      0.48884146     -0.00720498     -1.96846673      0.85155372      14       0      -1       0      32     -5.13258338      1.79658503      0.67702807      0.08847156      0.77580307     18.69472178     -4.67193529      0.07294807     -5.63698173      2.62209962
 Si              3.66470477      4.16680672      2.99480108      0.07405143      0.27190371     -0.23567390      14       0       0       0      29     -0.95811067     -0.07697193      0.29835708     -0.10304864      0.19163705      2.15957247     -1.73629249     -0.15642225     -3.63967445      4.48324677
 Si              5.42308920      5.36195530      3.56462445      0.09357481     -0.02002317     -0.12934776      14       0      -1      -1      30      0.00605110      0.48802839      0.42530112      0.35619213      0.46536720      1.36379618     -0.46413139      0.32701262     -0.47954043      1.79817804
 Si              3.66259193     -0.16326345     -0.16923490     -0.37090678     -0.15544604     -0.05316476      14       0       0       0      31     -1.03562688     10.57393071      0.62605446      0.75003000     -1.88234448     -0.27939280      0.23655784     -1.15443376      0.13196285     -0.20031844
 Si              5.46471383      0.84780168      0.63892005     -3.78092251      1.93061743      1.67835870      14      -1       0       0      30     -5.38525646     19.69250439     -7.81588297     -7.03832185     -8.64777929      6.86073611      4.16185319     -7.46994476      3.99415758      5.84975010
 Si              5.63040805      0.93351546      2.89901533      0.05237085      0.06753467      0.35150629      14      -1       0       0      30     -0.93450489      2.76822898     -1.58775013     -3.93255985     -1.41210230      0.87854551      2.25563382     -2.57012556      1.60585615      5.46782623
 Si              7.38346314      1.94201653      3.55839470      0.04075814      0.05389983     -0.02407369      14      -1       0      -1      32     -0.04681222      1.07796238     -0.21316031     -0.26322547     -0.16788097      0.73236418      1.22797791     -0.10247875      1.22556311      2.67891499
 Si              5.70066802      3.02978523     -0.11127266     -0.10579486      0.50336630     -0.04717660      14      -1       0       0      30     -1.01404335      1.77440997     -3.49297990      0.04666278     -1.39970820      4.72664841     -0.75342214     -0.55950793      0.70302546     -0.14433537
 Si              7.57994062      4.28647969      0.38355041     -0.00999107      0.01238773      0.11885533      14      -1      -1       0      31     -0.13463708      3.88742133      1.82755443     -0.62307635      1.76288769      2.81754443     -0.36009617     -0.93158742     -0.54392327      0.28085634
 Si              7.50656211      4.20897563      2.83950529      0.09686562      0.00924397     -0.02244618      14      -1       0       0      29      0.00000000     -0.17961650     -0.01419651     -0.00833131     -0.02137491     -0.23322173     -0.08915634     -0.02357646     -0.06933913     -0.14679631
 Si              9.29547624      5.15890593      3.60977090     -0.16318370      0.12525476     -0.14107934      14      -1      -1      -1      28      0.00422705      0.59149041     -0.66521142      0.11973631     -0.55352268      1.11699153     -0.51062041      0.09294963     -0.57641122      1.02621105
 Bi             -0.18585601     -0.00031096     -0.14610667      4.48558530      0.04473502      4.91890054      83       0       0       0      31     19.89082950    -37.78269686      2.01616979      2.52597455     -0.25842513    -38.29584277     -2.07001067      3.20971010     -1.05203261    -40.68298924
 15
 config_type=Bi_vac virial="18.08247101       4.44997874       3.53475863       4.44997874      17.89055884       0.27249474       3.53475863       0.27249474      12.25547933" energy=-2.6779929431827592 cutoff=5.00000000 nneightol=1.20000000 pbc="T T T" Lattice="7.66002767      -0.15172593      -0.16564485       3.76497175       6.59058601      -0.12023145       3.70314827       2.09535347       6.18896393" Properties=species:S:1:pos:R:3:force:R:3:Z:I:1:map_shift:I:3:n_neighb:I:1:local_energy:R:1:local_virial:R:9
 Si              1.75827441      0.97359057      0.74893044      6.76460828      3.99497222      2.68298816      14       0       0       0      31     -6.15892973     18.38850751     11.14986684      6.96395515     10.93580218      8.08206089      4.55999189      7.71205119      5.10875401      5.38876008
 Si              1.69562418      0.94362794      3.07469628      0.02046526      0.02997679      0.12077871      14       0       0       0      30     -1.27557350      1.95453372      1.08847113      3.06751456      1.00691059      0.31977916      1.51837622      3.01064739      1.37823925      5.95888827
 Si              3.71348560      2.05611357      3.72311619      0.00926183     -0.08956761     -2.81775650      14       0       0      -1      28     -5.33095152      1.69802604      0.29545356      0.90667279      0.29926796      2.22847113     -0.88704346      0.79458602     -1.19322616     21.66037251
 Si              1.87361788      3.32005313     -0.13308471     -0.27308056     -0.26724864     -0.05447173      14       0      -1       0      31     -1.22207093      2.10273293      3.00874575      0.22075938      4.66333627      6.94114824     -0.00609744     -0.19715373     -0.76744165      0.03514772
 Si              3.79871986      4.28191407      0.61766048     -0.04636468     -5.25982838      1.63903533      14       0      -1       0      31     -5.62972078      2.45376426      0.60439908     -0.10599336      0.01050745     24.54652648     -6.73299181      0.09501001     -6.93062846      4.28124675
 Si              3.67419572      4.20431490      2.96893518      0.02522994      0.17095090      0.07448632      14       0       0       0      29     -0.73400231     -0.03730926      0.02174206     -0.04277119      0.05418891      1.59477639     -2.18220320     -0.01864075     -1.76580885      3.24686583
 Si              5.55033320      5.22272536      3.72390005      0.08972607     -0.08444783     -0.00262000      14       0      -1      -1      30      0.00613867      0.51685408      0.27922426      0.28010495      0.28335148      0.96290338     -0.28439063      0.28376044     -0.23636158      1.12089117
 Si              3.80132027     -0.25348406     -0.34428340     -0.35780565      0.01236950     -0.00832693      14      -1       0       0      31     -1.00608761      7.40913176     -0.40636578     -0.43479006     -1.11433419      0.18865605      0.16470269     -0.49571392      0.35006213      0.09460014
 Si              5.57597546      0.90545454      0.50397321     -2.43669621      1.29933720      0.78967834      14      -1       0       0      30     -5.22435446     16.72396655     -8.52119546     -4.30722281     -7.99303471      7.18049438      2.52219429     -4.81899652      2.97798768      3.90328342
 Si              5.62516335      0.81448141      2.85088608     -0.01134298      0.00143317      0.14852920      14      -1       0       0      29     -0.69396479      1.08966095     -0.84477846     -2.38222043     -0.90112139      0.43680038      1.57994223     -0.90977803      0.77987683      2.97439895
 Si              7.48350676      1.96011257      3.67829432      0.04408736      0.08843963      0.01727965      14      -1       0      -1      31      0.01206026      1.00220080     -0.02765283     -0.04092547     -0.01278426      0.36244057      0.41015730      0.01619015      0.38152040      1.01350363
 Si              5.65200739      3.16175440     -0.18916104      0.18223023      0.03579527     -0.04520975      14       0       0       0      32     -0.73038945      1.53591130     -1.77201382     -0.26699625     -1.93493849      3.19933350      0.14377791     -0.14048790     -0.22410275      0.00143564
 Si              7.38239337      4.27770084      2.80204491     -0.03429226      0.05268077     -0.01569949      14       0      -1       0      31      0.00000000      0.06333502     -0.01275726      0.06556933     -0.02217590     -0.20283894      0.00566879      0.06592642      0.01393857      0.06276021
 Si              9.33434089      5.26714180      3.67296031     -0.08513967     -0.04782829      0.02439824      14      -1      -1      -1      31      0.02621756      0.45698308     -0.27525159     -0.38942234     -0.33410642      0.75390716      0.01448970     -0.37130778     -0.00715857      0.92943657
 Bi             -0.01948462     -0.11562480      0.01408300     -3.89088696      0.06296530     -2.55308954      83       0       0       0      29     25.28363564    -37.27582772     -0.13790873      0.00052438     -0.49089077    -38.70389993     -0.55407974     -1.49133437      0.40684386    -38.41611156
 15
 config_type=Bi_vac virial="13.28119570       3.69509446       1.83824381       3.69509446      13.85841646      -0.64907692       1.83824381      -0.64907692      16.32327039" energy=-2.9639130333468140 cutoff=5.00000000 nneightol=1.20000000 pbc="T T T" Lattice="7.59045304      -0.10554826      -0.12469163       3.70728535       6.55629254      -0.17470791       3.71672407       2.13243054       6.21745183" Properties=species:S:1:pos:R:3:force:R:3:Z:I:1:map_shift:I:3:n_neighb:I:1:local_energy:R:1:local_virial:R:9
 Si              1.84201921      0.89784043      0.73789888      4.57913945      2.55122341      2.20361937      14       0       0       0      29     -5.57186732     18.50677995      8.91403022      6.34749030      9.47192436      7.49915971      3.66485629      6.92719719      3.73481188      5.47276221
 Si              1.69944423      0.95172001      2.91839133      0.02037380      0.02457643      0.31497125      14       0       0       0      28     -1.18021007      1.99719159      1.30542454      3.63903377      1.07543671      0.47654932      1.95475039      3.01191767      1.80640318      6.33931714
 Si              3.64746865      2.10749402      3.81904034      0.00936434     -0.08073394     -5.04884551      14       0       0      -1      30     -5.95374603      1.40922156      0.17085135      1.07035016      0.16845689      1.09942183     -0.68387803      1.12547093     -0.71612382     25.10451504
 Si              1.73389043      3.13010905     -0.16695779     -0.06753199      0.13042563     -0.06690607      14       0       0       0      31     -1.16681698      1.92182494      4.18780556      0.00809150      3.23181140      6.81239178     -0.48726830      0.14350822     -0.16513922      0.26321623
 Si              3.58042896      4.18297653      0.50662149      0.06844756     -3.90884711      1.13497369      14       0      -1       0      31     -5.67288161      1.24185698      3.64638753     -0.44838819      2.51628070     20.67801992     -6.61060177     -0.09695761     -7.29497895      5.02666415
 Si              3.53186480      4.29479653      2.84507003     -0.05192987      0.05556178      0.27236237      14       0      -1       0      31     -0.78226199     -0.14718794     -0.01029998     -0.13614250     -0.17084982      1.78038038     -2.88931703      0.32489635     -1.76824689      3.59423863
 Si              5.46826074      5.32177125      3.61118847      0.08020447      0.03682905     -0.07919640      14       0      -1      -1      31     -0.00425417      0.40512928      0.22097218      0.33692606      0.23255428      0.72928250     -0.28708261      0.31494763     -0.29676169      1.12469175
 Si              3.74313988     -0.13786955     -0.17376591     -0.14608244     -0.12475551     -0.10258655      14      -1       0       0      31     -0.89252004      6.39320846     -0.23437871     -0.40324075      0.00204293     -0.05665592      0.20316525     -0.30908252      0.27300693     -0.02145303
 Si              5.47101152      1.00043766      0.57271786     -1.29488265      0.99558961      0.52256689      14      -1       0       0      33     -5.06641344     15.91587037     -6.77189035     -4.58383723     -5.97159906      4.28117561      2.59036036     -5.40346760      3.37058397      4.61701802
 Si              5.64104826      0.86123949      2.87698433     -0.10470220      0.05467512      0.18325943      14      -1       0       0      31     -0.75702576      1.59001675     -1.19095347     -3.06558958     -0.91043035      0.49092345      1.49361787     -2.04501861      1.37908670      4.35281569
 Si              7.49260543      1.93883800      3.69244049      0.07931947      0.06738948     -0.08753412      14      -1       0      -1      29      0.00019055      1.11667679      0.00075406      0.13233649     -0.01402703      0.27399834      0.39766328      0.13229910      0.40420510      1.26311893
 Si              7.50678803      4.24250170      0.40129309     -0.02288140     -0.01579015      0.11971601      14      -1      -1       0      32     -0.02081255      2.15341800      0.59173211     -0.27688201      0.61357900      1.52468985     -0.16351239     -0.34737574     -0.22806604      0.17122229
 Si              7.46982188      4.24475026      2.88044248      0.03231643      0.02975818     -0.00276073      14      -1       0       0      32      0.00000000     -0.08204624     -0.00588342     -0.07531708     -0.00904954     -0.11741240      0.00236732     -0.06826451      0.00705760     -0.11179068
 Si              9.17748417      5.29267678      3.68930617     -0.09303495     -0.03689993      0.03666119      14      -1      -1      -1      31      0.01440459      0.39443103     -0.39033202     -0.23322685     -0.51026739      0.93256668      0.21514718     -0.23811537      0.17143076      0.72925393
 Bi             -0.04088901     -0.11599189     -0.06677213     -3.08812002      0.22099794      0.59969918      83       0       0       0      32     24.09030179    -39.53519583     -6.73912514     -0.47336028     -6.03076863    -32.54607460     -0.04934474     -1.63371131     -1.32634643    -41.60231993
 15
 config_type=Bi_vac virial="13.65409642       4.13253276       2.74996132       4.13253276      13.12771499       0.15810454       2.74996132       0.15810454      21.33183499" energy=-2.9406602937250534 cutoff=5.00000000 nneightol=1.20000000 pbc="T T T" Lattice="7.65159903      -0.18377826      -0.17664566       3.72893338       6.58591921      -0.10302407       3.75678522       2.12445696       6.23225983" Properties=species:S:1:pos:R:3:force:R:3:Z:I:1:map_shift:I:3:n_neighb:I:1:local_energy:R:1:local_virial:R:9
 Si              1.81550428      0.88776682      0.69447797      4.73769707      2.57301178      2.03308022      14       0       0       0      31     -5.85305723     22.96307571      8.13049329      7.78754143      9.73526273      5.79488476      4.02430329      8.04873635      3.46659450      5.73738014
 Si              1.79063448      0.87603196      3.00323167     -0.05671724     -0.10065094      0.21611378      14       0       0       0      30     -1.10060455      2.31196797      1.42819756      3.46262690      1.64965981      1.09240202      2.06735194      3.27498140      2.07744893      6.13276329
 Si              3.57911000      1.97614992      3.85629223     -0.17260129     -0.21031967     -6.44376226      14       0       0      -1      29     -6.06853881      2.62224109      0.39491969      0.65363174      0.29329340      2.58874663      0.98349450     -0.57396918      2.21018427     29.95210173
 Si              1.83238389      3.25349789     -0.10303162     -0.04297475     -0.20759395      0.03952457      14       0       0       0      30     -1.22139090      2.07731403      3.32734001      0.35031933      3.95228622      7.18754821      0.06735945      0.16126128     -0.21805646     -0.07805319
 Si              3.76728257      4.31630501      0.68529213      0.05193001     -3.30966064      1.22400345      14       0      -1       0      30     -5.53687551      1.42465127      0.33282516     -0.10750675     -1.91151604     21.14071429     -7.49934969      0.83471861     -7.95586746      4.06756217
 Si              3.65883051      4.26186352      3.06715886      0.02657155      0.21199593     -0.04621477      14       0       0      -1      30     -0.95907009     -0.10234930      0.01273684      0.14685714      0.14615208      2.32793542     -1.98062146     -0.11928796     -3.56237799      4.40779526
 Si              5.48490289      5.24413937      3.67799071      0.06542300      0.02949934     -0.21572174      14       0      -1      -1      28      0.00181090      0.54306160      0.51963428      0.01413917      0.55892832      1.21962001     -0.57391714     -0.01813255     -0.69046936      1.39312956
 Si              3.65384095     -0.09459839     -0.19252759      0.24439944     -0.05908778     -0.07291892      14       0       0       0      32     -0.94360132      9.85820307     -1.04006090     -1.19863521      0.44536011      0.08050158      0.16426424      0.20746142      0.15266002     -0.14972589
 Si              5.58799416      0.95371595      2.94266986      0.01019605      0.03092248      0.09730026      14       0       0       0      32     -0.77748741      2.08113132     -1.20472545     -2.80912531     -1.30553434      0.60720347      1.72625628     -4.35540784      2.46418764      5.63608842
 Si              7.60224729      1.90456232      3.61378990      0.18225773      0.09605553      0.00477935      14      -1       0      -1      30     -0.02117150      1.36921615     -0.01613841      0.51273354     -0.08184654      0.36520506      0.56351479      0.53257610      0.58781692      1.67856494
 Si              5.64429089      2.99307513     -0.14630267      0.11493639     -0.11093571      0.00740229      14      -1       0       0      32     -0.83704343      2.38945371     -3.56972639     -0.36902007     -4.01838069      6.28266847      0.45190140     -0.15592221      0.08924472     -0.14970245
 Si              7.59643094      4.25034871      0.54880776      0.01418882      0.11272312      0.12689619      14      -1      -1       0      29     -0.02495051      1.80763110      0.80834240     -0.37886284      0.92514066      1.77392293     -0.10930771     -0.51815706     -0.12337971      0.20760953
 Si              7.52559039      4.10460300      2.86494758      0.00739580     -0.04908443     -0.00619452      14      -1       0       0      29      0.00000000     -0.08629178     -0.01511641     -0.06176132     -0.00943178      0.02627709     -0.00047523     -0.07472558     -0.00366276     -0.00333632
 Si              9.36232328      5.20772363      3.74933893     -0.08676736     -0.07027450      0.00080578      14      -1      -1      -1      31     -0.00204347      0.63195286     -0.72150089      0.07067769     -0.70289082      1.38894929     -0.55822705      0.06647788     -0.59725672      1.23653617
 Bi             -0.12392301     -0.01493505     -0.12432522     -5.09593521      1.06339945      3.03490633      83       0       0       0      31     20.40336355    -36.23716238     -4.25468802     -5.32365411     -5.54395036    -38.74886424      0.83155693     -4.56064933      2.26103801    -38.73687837
 15
 config_type=Bi_vac virial="16.58038390       2.54751994       1.57702110       2.54751994      12.76311453       0.11990622       1.57702110       0.11990622      12.90865155" energy=-3.2748788782612523 cutoff=5.00000000 nneightol=1.20000000 pbc="T T T" Lattice="7.61805436      -0.19979767      -0.11753905       3.78045361       6.59831340      -0.16141200       3.69813979       2.13685687       6.19679335" Properties=species:S:1:pos:R:3:force:R:3:Z:I:1:map_shift:I:3:n_neighb:I:1:local_energy:R:1:local_virial:R:9
 Si              1.89924125      0.93954331      0.60879344      4.77184942      2.64316527      1.71683755      14       0       0       0      30     -5.80327599     19.86114963      8.56114267      5.28174137      9.52323452      6.76838538      3.38581043      6.18501543      3.53200865      4.25485728
 Si              1.73190560      0.98096027      3.09769823     -0.07965228     -0.01482334     -0.03595667      14       0       0       0      28     -1.25177195      2.03707781      1.23777649      3.44510065      1.14602111      0.36674248      1.55798960      3.25214567      1.57630968      5.87004197
 Si              3.60327925      1.96276297      3.78777082     -0.16148331     -0.17911247     -3.93935229      14       0       0      -1      28     -5.42960560      2.34366200      0.11899623      0.86795333      0.09606810      2.31176645      0.56200592      0.64468171      0.90261212     24.31779892
 Si              1.80344353      3.29779528     -0.13260051     -0.09447754     -0.11479241      0.03037420      14       0      -1       0      30     -1.13102597      1.99717088      3.32103577      0.26700869      3.47916745      6.31424641     -0.02588006     -0.04809609     -0.53490313      0.00341058
 Si              3.80244308      4.26258024      0.61071487      0.25114276     -3.52988106      1.00610527      14       0      -1       0      31     -5.62885358      1.17232538      2.64333027     -0.23281170      1.38513213     19.21173990     -6.44728300      0.23573555     -7.17019258      4.11844336
 Si              3.51613146      4.19651901      3.00074218     -0.02741412      0.10093734     -0.00794198      14       0       0       0      30     -0.77502606     -0.01008339      0.03555685     -0.17518526      0.14075105      2.02307732     -1.86466153      0.06767424     -3.00663403      3.87878890
 Si              5.44888967      5.34880068      3.71557351      0.07325814     -0.04961587     -0.07964175      14       0      -1      -1      29      0.00162018      0.49641355      0.34050064      0.27323530      0.36270994      0.96552479     -0.20438637      0.25059043     -0.20989062      1.10755312
 Si              3.67345632     -0.17295863     -0.31750367      0.04119225     -0.07667786     -0.16862232      14      -1       0       0      30     -0.82167819      5.89024147     -0.89023710     -0.20621323     -0.03739452      0.14718626      0.19512057     -0.06848544      0.41902682      0.08449236
 Si              5.45412460      0.79747680      0.61286339     -2.11825991      1.32734433      0.78203170      14      -1       0       0      31     -5.34628889     17.77897279     -6.19309746     -4.80191547     -6.21390825      3.21470983      2.75383559     -5.69120116      3.18711934      4.14241222
 Si              5.51372495      0.85377305      3.00729826      0.05802198      0.01424232      0.12326447      14       0       0       0      30     -0.66409613      1.53490253     -1.02498734     -2.02927599     -0.67419706      0.22304057      0.51432186     -1.90753234      1.19178346      2.65302988
 Si              7.47157475      1.90561310      3.59882363      0.05346840      0.06265381     -0.03005793      14      -1       0      -1      29     -0.02855167      0.82110068     -0.04224493      0.09498818     -0.07489768      0.65949148      1.04793940      0.01040401      0.90571005      1.96451049
 Si              7.52577118      4.30005170      0.41061753     -0.11321981      0.10605601      0.08382690      14      -1      -1       0      30     -0.00540253      2.17242590      0.40221800     -0.21311093      0.51207731      1.46619967     -0.13123807     -0.26601733     -0.17937746      0.09677262
 Si              7.36533030      4.13141632      2.88204535      0.00078326     -0.04402763      0.04126351      14       0       0       0      29      0.00000000      0.11975628     -0.09209858      0.09418942     -0.09534894     -0.03394557      0.05326863      0.09091738      0.06297875     -0.03031451
 Si              9.22885308      5.16131591      3.73668234     -0.14721892     -0.03225255      0.06064785      14      -1      -1      -1      32      0.02414342      0.49039912     -0.52346109     -0.06224220     -0.52939456      0.94600035     -0.05304303     -0.05868834     -0.00102503      0.70057408
 Bi             -0.05411198     -0.06187873     -0.02882797     -2.50799031     -0.21321587      0.41722147      83       0       0       0      29     23.58493408    -40.12513072     -5.34691048     -1.02644105     -6.47250067    -31.82105077     -1.22389372     -1.12012261     -0.55561981    -40.25371973
 15
 config_type=Bi_vac virial="12.50493628       2.30296246       1.80092301       2.30296246      14.24157324      -0.83043616       1.80092301      -0.83043616      17.83607852" energy=-2.9640126662978235 cutoff=5.00000000 nneightol=1.20000000 pbc="T T T" Lattice="7.63160824      -0.12744168      -0.17789361       3.69539915       6.58547695      -0.15085516       3.76142793       2.04584075       6.14758152" Properties=species:S:1:pos:R:3:force:R:3:Z:I:1:map_shift:I:3:n_neighb:I:1:local_energy:R:1:local_virial:R:9
 Si              1.86671802      1.01011283      0.65709041      3.84340504      2.36661844      1.71410767      14       0       0       0      29     -5.52409506     17.26841915      9.51974987      5.37007131      9.60925514      8.30646324      3.54068535      6.15496990      3.99131148      5.21657466
 Si              1.73099730      0.93552678      3.00290567     -0.08240075      0.02301459      0.12416795      14       0       0       0      32     -1.36372155      2.53638724      1.41345729      4.00581274      1.51771037      0.53612639      2.41456840      3.38163934      1.50163930      6.33980737
 Si              3.69924486      2.02143684      3.79215025     -0.17843928      0.42662882     -6.25640186      14       0       0      -1      32     -6.08110710      2.56900250      0.06235466      0.63373811      0.04801861      0.50741050      1.52613956      1.32249994      0.53949348     26.51328353
 Si              1.77199778      3.16595894     -0.20410328     -0.08032249      0.10312736     -0.07488777      14       0       0       0      32     -1.09951196      1.77915089      3.53945137     -0.05593790      3.54625854      6.47327746     -0.58429477      0.25189741      0.03016383      0.15135790
 Si              3.69291123      4.21872785      0.58081764      0.03068473     -3.88094506      1.61747835      14       0      -1       0      31     -5.71662542      2.28324293      0.69662662     -0.07805391      0.11745082     22.30196747     -5.47615731      0.13545420     -5.00505780      1.96072146
 Si              5.43158516      5.24222583      3.55223963      0.05891421     -0.12395930     -0.00448957      14       0      -1      -1      31     -0.00625611      0.48234048      0.19437745      0.55120612      0.21955483      1.05739365     -0.58468294      0.49272609     -0.54897599      1.74003690
 Si              3.70954483     -0.10373896     -0.32018278      0.08973578     -0.09366882     -0.15623550      14      -1       0       0      28     -0.83525962      4.81444934     -0.44000783     -0.48268232     -0.38906928      0.09813986      0.15152667     -0.01111958      0.36802744      0.14524716
 Si              5.51060432      0.97782479      0.43851730     -1.49551279      0.86781499      0.81798549      14      -1       0       0      29     -5.10326681     15.53830038     -7.80291661     -3.39113516     -7.18533906      6.75044010      1.87749732     -4.27210899      2.60784781      2.87551365
 Si              5.60476811      0.90295976      2.95886686      0.12148402     -0.05111024     -0.08753983      14       0       0       0      32     -0.91732500      2.07407076     -1.14441929     -2.68640766     -1.06252541      0.44650889      1.21101545     -2.54111103      1.14547776      3.74707294
 Si              7.55223324      1.93814356      3.48292845      0.09555087      0.04681037     -0.11983748      14      -1       0      -1      29     -0.02427320      0.77312461     -0.02736984      0.07331156     -0.08788306      0.66701670      1.05816861     -0.03375817      0.95549298      2.09459315
 Si              5.53122158      3.16649130     -0.27306662      0.17228056     -0.03832097     -0.12423947      14       0       0       0      32     -0.62860308      1.05071335     -1.17601389     -0.26150949     -1.73118108      2.48018871      0.20017428     -0.11915252     -0.17849276      0.03476630
 Si              7.59031712      4.26307454      0.47344947      0.07089066      0.04141494      0.09874876      14      -1      -1       0      30     -0.01904279      1.90027736      0.44626732     -0.25909610      0.45204312      1.02487114     -0.17891031     -0.41549103     -0.28366135      0.18467580