 17
 config_type=Bi_int virial="18.69828872     -10.25521164      -5.21465081     -10.25521164      42.09162123      -8.33887400      -5.21465081      -8.33887400      39.69277103" energy=8.9007014926267214 cutoff=5.00000000 nneightol=1.20000000 pbc="T T T" Lattice="7.74350993       0.00000000       0.00000000       3.87815890       6.69158098       0.00000000       3.85516841       2.23973876       6.35620957" Properties=species:S:1:pos:R:3:force:R:3:Z:I:1:map_shift:I:3:n_neighb:I:1:local_energy:R:1:local_virial:R:9
 Si              1.98275554      1.11276674      0.78597677     -0.12198055      0.24057887     -0.11059451      14       0       0       0      35     -0.10931984      1.55854231      0.52083445      0.65698942     -0.62188230      0.15575222     -0.36265762      0.94404861      0.16350978      0.61037067
 Si             -0.08665174      0.10521540      0.03788899      2.41956784     -2.27239634      2.41794912      14       0       0       0      32     -4.19878020      2.79750172     -5.05197136      2.58592063     -5.81202747      3.82725877     -4.97191401      2.36033235     -4.04315522      3.66016063
 Si              1.88741215      1.09119489      3.16416375     -0.21876140     -0.67691335     -0.47484553      14       0       0       0      32     -2.09482822      2.25428133      2.30467701      1.83552490      3.66710398      8.18589854      5.48122454      2.76609724      5.21952473      5.10838091
 Si              3.78986722      2.22540294      4.01800978      2.82669450     -3.74701849     -2.35426659      14       0       0      -1      33     -4.15643320      3.27851082     -6.61358028     -4.25553879     -3.83819116      9.34827375      4.53687625     -2.34945209      4.45525221      5.94808150
 Si              1.97224295      3.39708967     -0.00401409     -0.16377001     -0.02351277     -0.04429580      14       0      -1       0      36     -0.12609940      3.06791749      1.60661574      1.22504024      1.60279746      0.43181445      0.74336938      1.21669860      0.72722100      0.24941259
 Si              3.93171284      4.42287267      0.84999865     -0.35465590     -0.49646862     -0.14899028      14       0      -1       0      35      0.06668832     -0.21916956      0.88013174      0.74031592      0.72544079     -0.32349285     -0.95007727      0.56841949     -1.04027218     -0.19731728
 Si              3.82753164      4.47393325      3.14835953      2.43379851      1.31738452     -2.91809411      14       0      -1       0      33     -3.93177272      3.26653691      0.39480301     -5.64594965      1.08385502      1.06340400     -2.89109755     -5.31417375     -1.85900578      5.66738958
 Si              5.72264392      5.52487613      3.98457543     -0.25184583     -0.03903499      0.06370683      14       0      -1      -1      36     -0.24138548      3.56722655      1.54737863      0.23928461      1.68434949      1.06374745     -0.01699862     -2.31370538     -1.19524892      0.21993213
 Si              3.85996242     -0.02609998     -0.11152602     -0.56800025     -0.49841510      0.14838730      14      -1       0       0      33     -2.83967004      8.78008244      5.85648345     -0.15251720      5.61712263      4.90159147     -0.15404034     -2.39642519     -1.73695439      0.99646814
 Si              5.71893483      1.08895863      0.83337352     -2.06770969     -1.71941472      6.80521009      14      -1       0       0      34     -4.34899179      3.54569579      0.69328031     -3.77680368      0.65175042      3.35678978     -3.20446504     -6.00015209     -5.28364944     13.20061346
 Si              5.79561286      1.17712253      3.22569901      0.45966509      0.31942425      0.13658604      14       0       0      -1      36      0.02655159      1.08587687     -0.15962230     -0.10651471     -0.22377208      1.65871510     -0.14214754     -0.12587524     -0.17527535      1.58577182
 Si              7.85037987      2.24391305      3.93559643     -0.15337320     -0.20832677     -0.16339319      14      -1       0      -1      33     -2.61966673     11.14871789      6.19736283      4.33528651      4.44399539      7.09831432      2.30366481      3.64772971      2.68594849      5.56874615
 Si              5.84251643      3.33684425      0.13054984     -0.67950894      4.52100692      3.86697296      14       0       0       0      32     -4.43761187     -1.05479985     -2.61142286     -2.29382347     -1.78801922      9.20301673      6.77211159     -1.43450026      5.81022727      5.58093918
 Si              7.78103085      4.52510570      0.76624930      0.10673603     -0.00559548     -0.17670700      14      -1      -1       0      35     -0.20079010      0.60171804      0.11094659      0.09820296      2.21316411      2.54686169      1.58402360      1.39826313      1.37208338      1.52784146
 Si              7.72340751      4.43974001      3.12320186     -0.60586557      0.03756010     -0.60484587      14      -1       0       0      32     -2.60650471      8.88784434      1.58760426      6.21186521     -0.53461038      0.72728146     -0.37193497      6.39566896      1.32505573      5.85243044
 Si              9.65926661      5.55585256      4.04744922     -2.65627081     10.22875233     -5.90602186      14      -1      -1      -1      33     -4.56670171      3.09769705     -2.96458373      0.99216287     -5.56876346     10.51922853     -6.30916415      2.07057534     -4.85674368      7.22058381
 Bi             -5.40056418     -5.17366082     -1.32803299     -0.40471983     -6.97761035     -0.53675760      83       0       1       0      30     45.28601759    -36.96589140    -14.55414915     -7.90409659    -13.55752485    -21.67283416    -10.38564705     -6.64820026     -9.90739163    -23.10703418
 17
 config_type=Bi_int virial="28.77042281     -15.55592870     -19.04697278     -15.55592870      43.96816091      -6.71709896     -19.04697278      -6.71709896      53.79665637" energy=12.732311473663392 cutoff=5.00000000 nneightol=1.20000000 pbc="T T T" Lattice="7.83372073       0.00000000       0.00000000       3.86630423       6.74418544       0.00000000       3.85313177       2.25383919       6.37685640" Properties=species:S:1:pos:R:3:force:R:3:Z:I:1:map_shift:I:3:n_neighb:I:1:local_energy:R:1:local_virial:R:9
 Si              2.00613902      1.08584888      0.80794310      0.06214601     -0.04069645      0.17044498      14       0       0       0      34     -0.48410100      3.60467731      0.25010652      1.95234131     -1.43289734      0.51524906     -1.05699003      3.18829386      0.13994030      2.48722864
 Si             -0.12120332      0.00734846      0.04640976      1.73141192     -2.74192001      3.66571169      14       0       0       0      32     -4.10732001      1.57487337     -5.42330843      3.40953247     -5.47652305      3.91463705     -8.16628080      2.77062573     -6.85076166      8.22777160
 Si              1.99246947      1.06955616      3.09031060     -0.04646146     -0.55320780     -0.31928785      14       0       0       0      32     -1.58192507      3.48089328      3.62832940      2.16386259      5.09182525      8.29395908      4.05870120      3.22222901      4.46126398      4.02260592
 Si              3.88713117      2.28180935      3.95083150      7.68077766    -12.72607785     -7.15208332      14       0       0      -1      32     -4.24100314      0.45404556     -7.85891707     -3.49970394     -6.34156398     11.42118132      5.04907141     -3.34384091      6.07602838      6.44867941
 Si              2.01892718      3.37626295     -0.05579193      0.22895763      0.16078913      0.23659347      14       0      -1       0      35     -0.12029307      4.24158727      2.39142126      1.88873021      2.29846655      1.86186973      1.03415700      0.44857887      0.21324851      0.97320536
 Si              3.88904977      4.50571483      0.77082508     -0.24504655     -0.24335826     -0.40275581      14       0      -1       0      32     -0.07658804      0.71659514     -0.20710823     -0.75416938     -0.40644651      1.04890704     -0.23666771     -0.51737222     -0.27149950      3.31828079
 Si              3.71720205      4.45013332      3.15068904      9.35571413      7.01347827    -17.77528853      14       0       0       0      32     -3.90654493      5.53209590      1.70956101     -8.56757212      1.80509179      4.27928939     -5.83837282     -9.41537430     -6.29833263     15.50284162
 Si              5.73491259      5.62099199      3.87551005      0.18655185      0.18938908     -0.04629083      14       0      -1      -1      34     -1.33415801      8.72787479      4.49257555     -0.22035897      4.17168772      4.19899220     -0.10034897     -2.19785440     -1.45877821      0.43974488
 Si              3.80680139      0.01176418     -0.18663817     -0.23423952     -0.01119511      0.04562171      14       0       0       0      34     -0.82780569      3.53963577      1.52158877     -0.38797120      1.07889030      0.87839586     -0.05685003     -1.66047002     -0.91805599      0.94924390
 Si              5.88424217      1.16368549      0.75735270     -1.16226141     -0.53368043      1.80801160      14      -1       0       0      32     -3.56653123      2.82427380     -0.31659573     -5.35987459      0.29787151      2.09924025     -2.94095012     -7.57620225     -2.38861622      8.63713631
 Si              5.81761347      1.03324066      3.11478513      0.61650491      0.02720538      0.02523216      14      -1       0       0      34      0.01617322      0.73335658     -0.20833330     -0.67604668     -0.31288013      0.06246537      0.19613726     -0.50993612      0.17826168      0.91007411
 Si              7.82410361      2.27563869      3.96607688     -0.00452217      0.03396538      0.14437075      14      -1       0      -1      32     -1.00421064      8.45654120      3.07469623      1.20384881      3.81304174      4.75750463      1.06444073      3.63598490      2.15717239      2.10170225
 Si              5.80812726      3.33068087      0.01787537     -0.64179199      1.60565897      1.52717132      14       0       0       0      31     -3.81913366     -0.70193641     -2.68507559     -3.26620463     -4.19790720      5.86816740      4.73627079     -3.47751401      2.80697079      5.19555698
 Si              7.80736619      4.59676356      0.72359631     -0.03424706     -0.01231150     -0.00342946      14      -1      -1       0      34     -0.38068832      0.47136156     -0.18299878     -0.10723498      1.41062764      2.28586328      1.58861053      1.21672447      2.05859589      1.65912181
 Si              7.83750015      4.51126863      3.17685798     -0.29903294      0.17291175     -0.14635406      14      -1      -1       0      33     -1.48821623     10.94673628      0.19641083      3.49936140     -1.19918900      1.14816881     -0.56141834      4.16223765      0.07370838      2.38542958
 Si              9.58146530      5.67482538      3.95032712     -3.85192222      4.67117787     -2.19511674      14      -1      -1      -1      32     -3.84892184      3.98567131     -9.03069900      2.65756101    -11.38849551      8.52142123     -3.80055331      3.96850961     -4.26643097      3.72716553
 Bi              3.00778838     -5.17804800     -1.59799267    -13.34253878      2.98787157     20.41744894      83      -1       1       0      35     43.50357911    -29.81785991     -6.90758216    -12.98307410     -4.76752848    -17.18715078     -1.68605574    -12.96159265     -2.42981407    -13.18913231
 17
 config_type=Bi_int virial="38.06309757       1.14537861       0.01788845       1.14537861      17.72999212       6.65297201       0.01788845       6.65297201      29.42375264" energy=7.2447895341146440 cutoff=5.00000000 nneightol=1.20000000 pbc="T T T" Lattice="7.68836048       0.00000000       0.00000000       3.89361207       6.75416728       0.00000000       3.87730581       2.24900066       6.28467291" Properties=species:S:1:pos:R:3:force:R:3:Z:I:1:map_shift:I:3:n_neighb:I:1:local_energy:R:1:local_virial:R:9
 Si              1.98287641      1.10669565      0.80483072      2.74330857      1.06014148     -1.94121596      14       0       0       0      33     -3.92885986      3.91622269      1.29190121     -2.59835102      1.63312917     -1.30073004     -0.59231180     -2.26338975     -0.20682708      2.53121100
 Si              0.02126424      0.00602044      0.01844356      0.06054692     -1.01876746     -5.88219295      14       0       0       0      33     -4.13963815      3.31047256      0.08610590     -0.31230147      0.06804175      3.50313910      2.64731165     -0.39565375      4.74542429     13.58033003
 Si              1.91871026      1.13888031      3.12330121      7.03113784      2.84984129      2.85849198      14       0       0       0      32     -4.52271199     13.11349255      2.88919530      4.50593480      3.64733618      4.36841448      1.98242831      3.96087145      1.42731388      5.48415591
 Si              3.85104135      2.22011116      4.07208233     -0.01448442      0.19263605      0.44446714      14       0       0      -1      35      0.02907555      1.79987089      0.01607262      0.03397588      0.00145009      1.43573781      0.15105609      0.02362753      0.23386947      1.51633178
 Si              1.98436108      3.39237366      0.02721188     -0.16816478     -0.07432746      0.20044488      14       0      -1       0      35      0.03438927     -0.29351354     -0.27117613      0.30938078     -0.62648123     -0.60778049      0.61769706      0.50297780      0.37963396     -0.29526269
 Si              3.91476019      4.49332828      0.78178687      0.05253303     -0.88579261     -0.60408761      14       0      -1       0      34     -3.26953969      0.24471254      0.39144018      0.32399968      0.02529682      9.66884673      2.16028762      0.12131405      3.68709071      2.08798975
 Si              3.86037121      4.53984862      3.10181612     -0.02767937     -1.11426377      0.24467704      14       0      -1       0      34     -3.14781829      3.71934165      0.17835326     -0.37609555      0.67530050     13.47745307     -2.43824737     -0.55213200     -3.31545613      4.60121388
 Si              5.71613100      5.56700608      3.91351449      0.69028929     -0.81713523      0.68226070      14       0      -1      -1      33     -3.45130306      1.73465324     -3.30363062      2.11225017     -1.57291540      5.02263822     -2.38708245      1.80431946     -3.67847657      1.82394452
 Si              3.78137146      0.07289837     -0.09485591     -0.01790391     -0.55060375      0.08339246      14       0       0       0      36      0.05430213      0.07718634      0.04552221      0.20730492      0.04729618     -0.11298257     -0.91157964      0.19343305     -0.99520389     -1.66897988
 Si              5.75759252      1.09912843      0.76287799     -2.37360986      0.98674577     -1.83616152      14      -1       0       0      33     -3.82078092      3.87142519     -1.54045757      3.10628206     -2.15410734     -0.53550496     -0.89081515      2.44829284     -0.16185214      2.29660785
 Si              5.76777455      1.12671137      3.07271100     -6.35790494      2.38697590      2.27598697      14      -1       0       0      33     -4.43645846     12.88730457     -1.82859303     -4.84709640     -3.02710449      3.53050577      1.91584272     -3.91901642      1.07614818      5.39648473
 Si              7.70625858      2.33743012      3.98535379      0.06573313      2.84714521      2.26474804      14      -1       0      -1      34     -4.19035153      0.65335787     -0.32491382      0.10730134     -0.28058951      1.21296913      3.86591606      0.14312445      4.19896670      3.04288249
 Si              5.80311870      3.24701009      0.11897718      0.19619054     -0.36023538      0.31686683      14      -1       0       0      34     -0.04682771      0.31102335     -1.44096494      0.70114945     -0.14053717      1.16695094     -0.53755411      0.26136904     -1.33878118      0.74899420
 Si              7.77222345      4.62835264      0.82751929      0.01342747     -0.05312270      0.05617370      14      -1      -1       0      35      0.02423374     -0.32897887     -0.00918207     -0.01707068     -0.01199180      0.03576585     -0.09377615     -0.01843359     -0.08998360     -0.25559993
 Si              7.68717707      4.59202905      3.16545225     -0.02239181     -0.03527695     -0.27618180      14       0      -1      -1      35      0.04541782      0.15393341     -0.01663288     -0.03724067      0.01424401     -1.76925583     -0.55318093     -0.11865421     -0.37016771      0.10973004
 Si              9.59147452      5.62146255      4.02533080     -0.76439525     -0.53410514      0.69670824      14      -1      -1      -1      33     -3.24621159      4.16102546      4.56721086     -3.57432836      3.10030373      6.06352688     -3.61870949     -2.75160622     -4.25481406      3.66309336
 Bi              3.82155308     -6.39237725      2.29567598     -1.10663243     -4.87985526      0.41562187      83      -1       1       0      30     45.25787229    -11.26843231      0.41512812      0.37279352     -0.25329290    -27.42970196      5.33568959      0.57744471      5.31608719    -15.23937439
 17
 config_type=Bi_int virial="22.65317315      14.77847893       9.88880185      14.77847893      40.16105464      -6.72915724       9.88880185      -6.72915724      41.86429771" energy=9.2842590384353851 cutoff=5.00000000 nneightol=1.20000000 pbc="T T T" Lattice="7.74064261       0.00000000       0.00000000       3.89813511       6.68715326       0.00000000       3.92567232       2.24259248       6.33552934" Properties=species:S:1:pos:R:3:force:R:3:Z:I:1:map_shift:I:3:n_neighb:I:1:local_energy:R:1:local_virial:R:9
 Si              2.00313736      1.10143464      0.83075872      4.59127553      5.54117717     -3.83278414      14       0       0       0      33     -4.68367898      3.62018580      8.27089858     -3.30786610      9.98754861      7.90678644     -6.86227505     -4.38397455     -6.82577573      6.25643796
 Si             -0.02212601     -0.00110522     -0.05701130     -4.30463383      2.26126232     -7.73448075      14       0       0       0      33     -4.46172827      2.99475206     -0.62747903      8.63375169     -0.73115595      1.63588022     -5.20237994     10.18566661     -5.87484317     11.97744839
 Si              1.96610447      1.14028787      3.25440645      1.62858481      3.25035568      3.08270855      14       0       0      -1      34     -3.90500234     -1.12306188      5.37494643      5.23688534      4.16059911      8.66955525      6.38504744      3.81475683      5.75849686      6.78331984
 Si              3.83358444      2.19529025      4.09447227      0.38728893     -0.59416644      0.14210620      14       0       0      -1      34      0.05359410      0.24109676      0.34906324      0.06759443      0.35148133      1.16978427     -0.27220045     -0.16715687     -0.26228549     -0.33802993
 Si              1.99283573      3.37131321     -0.04155015     -0.50336271      0.35733531      0.16090843      14       0      -1       0      36      0.02903193     -0.04394326     -0.44352848      0.10129333     -0.39923851     -0.07899232     -0.35863186      0.12081034     -0.29868927      0.64082221
 Si              3.96481768      4.42979705      0.79627164     -2.64971294     -7.11747602     -4.14522757      14       0      -1       0      33     -4.52081643     -1.88799033      6.73471145      4.29392368      4.86857706     12.57094716      6.65334785      3.08267911      6.56235009      5.79764676
 Si              3.90903900      4.41592925      3.03821105     -3.00066644     -4.92892499      2.97948458      14       0       0       0      33     -4.23200070      1.74723602      7.10119106     -2.88914965      8.33117696      6.65948877     -7.45176104     -2.97114505     -6.01826730      5.32219907
 Si              5.87977159      5.60847372      3.91216367      2.86147913     -1.23859969      4.08763736      14       0      -1      -1      33     -4.28027557      3.21951851     -0.76530016      8.03110556     -0.77586565      1.80314751     -3.70664710      9.85352397     -4.61996061      9.86379696
 Si              3.86864557      0.02619419     -0.13121741      0.32925940     -0.01917250     -0.29090873      14      -1       0       0      35     -0.88984128      5.63692189     -0.33692141     -2.70050159      0.80680508      0.87507319     -0.35061891     -2.97094517      0.42114698      2.79008938
 Si              5.79351766      1.10098709      0.80693270     -0.30895658      0.23630836     -0.22690355      14      -1       0       0      35     -1.29250661      9.00623594     -4.14357017      0.31865075     -4.18381991      3.94747391     -0.33733372      1.71274203     -1.10327964      1.23107430
 Si              5.90345762      1.11582600      3.19776828      0.00297851      0.10903035      0.13041646      14      -1       0      -1      37     -0.98029883      7.55354353     -3.56080856     -3.14938719     -3.78997643      4.21435622      2.10355467     -2.33331115      1.49358275      3.48774781
 Si              7.79366559      2.29738917      3.81458426     -0.00264441      0.25478185      0.18730343      14      -1       0      -1      35     -1.18272193      2.46404039     -2.06598206     -1.20324297     -3.28979779      5.50258707      2.98852917     -2.07957870      3.30164460      3.40748810
 Si              5.79507081      3.38659653      0.04253161     -0.12327193     -0.06331117     -0.12959156      14       0      -1       0      36     -1.55798589      3.34818487     -2.92426729     -1.74952820     -4.31631802      6.30315727      3.40194428     -2.60248732      3.29691037      3.38983990
 Si              7.82870428      4.60398390      0.77047607      0.15732242      0.08568226      0.05389112      14      -1      -1       0      35     -0.78272849      6.85348304     -2.72573914     -1.85318692     -3.46290804      3.04701037      1.43982067     -2.13061545      1.29629774      2.14372829
 Si              7.74180372      4.57337199      3.15601887      0.16596569     -0.15625491      0.15623653      14       0      -1       0      35     -1.15383481      6.29116272     -2.76292689      0.33409415     -2.70236496      2.08801175     -0.16581465      1.55547123     -0.84707915      0.85385776
 Si              9.62557307      5.59401121      3.99445603     -0.39335427     -0.06465574      0.28201601      14      -1      -1      -1      35     -0.85204355      5.48080603     -0.33596379     -2.75314799      0.43467061      0.84315545     -0.20803021     -2.91535886      0.27581729      2.83328925
 Bi             -6.86733092      3.92208684     -4.45821074      1.16244870      2.08662817      5.09718761      83       1      -1       1      38     43.97709669    -32.74899894      7.64015513      2.47751351      9.48906544    -26.99636788     -4.78570840      2.11772483     -3.28522358    -24.57645832
 17
 config_type=Bi_int virial="25.75204237       7.51667123       4.12258243       7.51667123      30.27724407      -2.43744116       4.12258243      -2.43744116      38.93995204" energy=7.7649496068571997 cutoff=5.00000000 nneightol=1.20000000 pbc="T T T" Lattice="7.74731265       0.00000000       0.00000000       3.86030338       6.75448684       0.00000000       3.90569626       2.22805363       6.39420031" Properties=species:S:1:pos:R:3:force:R:3:Z:I:1:map_shift:I:3:n_neighb:I:1:local_energy:R:1:local_virial:R:9
 Si              2.02902958      1.02017283      0.90942534     -1.62057259      0.85360309     -0.72468138      14       0       0       0      32     -3.83100562      5.26068768     -3.19013030      0.34364513     -3.33087679      0.58229770      0.01027451      1.55407248     -0.51719092      0.46228285
 Si              0.00618547      0.03143189      0.00935578     -0.20789114     -0.26636691      0.21719393      14       0       0       0      32     -0.11415844      2.30372751     -0.62176056     -0.93285209      0.27910277      0.27194496      0.04794736     -1.09260775      0.31803162      1.06989225
 Si              2.03096244      1.06393340      3.21612392     -1.09696630      0.57879701      0.69627862      14       0       0      -1      32     -3.34644587      9.99615318     -2.22163077     -5.29872957     -2.98735194      5.28859540      2.56199527     -3.59967225      1.26201994      6.33082916
 Si              3.88235728      2.19964180      4.00534333     -0.22465630      0.79614573      0.69899823      14       0       0      -1      31     -3.56662461      1.98787314     -0.98579448     -0.94572607     -1.98964987      4.07468982      5.68601336     -1.75470368      5.13319284      6.41977243
 Si              1.95475509      3.39875979     -0.00282185      0.16816601      0.27330714      0.16689636      14       0      -1       0      33      0.00617714      0.32445879      0.35275970      0.08148358     -0.06112362     -0.12291910     -0.37466742      0.09139551     -0.34907636     -0.05946316
 Si              3.93601539      4.37043824      0.79149814     -0.01651081     -0.11728741      0.14815286      14       0      -1       0      35      0.02177900     -0.15945476     -0.07021246     -0.06182693     -0.07121375      0.03365676      0.04091985     -0.03198376     -0.02299535      0.07996266
 Si              3.88887965      4.49427014      3.24612496     -0.11435939      0.07881079     -0.14811514      14       0       0      -1      34      0.02348348     -0.63327120      0.32685610     -0.34243985      0.32281072     -0.21927494      0.16785293     -0.38645076      0.10658415      0.10987990
 Si              5.73495785      5.51369664      3.99396641     -0.84033817     -0.32182871      0.55083858      14       0      -1      -1      31     -2.97804114      7.27235834      1.76644816     -6.08027130      2.14351624      2.40966485     -2.59245897     -6.06231083     -2.25730921      6.86866926
 Si              3.80378390      0.03629792     -0.13456313     -1.71585485      0.33877080     -8.71660535      14       0       0       0      32     -4.51037733      3.29944021      0.04305426      2.58326974     -0.08364816      2.94748296     -0.81342056      4.66402326     -0.51805842     13.59372774
 Si              5.74241700      1.12668966      0.88138768      4.61680756      3.37771619     -2.77235206      14      -1       0       0      31     -4.31864166      8.20388541      6.52790249     -5.24376388      6.76073334      3.53042527     -4.33189026     -3.45928330     -2.84103488      4.01669474
 Si              5.89041314      1.10501761      3.12040655      3.90631804      2.65711114      1.89145095      14      -1       0       0      31     -3.92910067      6.58788249      3.13109943      6.07242007      3.21165788      5.84567999      4.03831764      2.58714808      1.67257370      6.79333641
 Si              7.73038012      2.15098301      3.99490230      0.00048982     -0.38931992      0.22549395      14      -1       0      -1      35      0.01555805      1.24599672      0.18952555     -0.04088252      0.14357504      1.78912251     -0.14198817     -0.06431164     -0.25011333      0.63672596
 Si              5.82537465      3.31392942      0.12622712     -0.44968255      0.02908837      0.42610038      14      -1       0       0      34     -0.00151916      0.48715650      0.22061162      0.05824916     -0.26326971      0.35525919     -0.18232381     -0.00341542     -0.27696540      0.55706651
 Si              7.79733648      4.63685821      0.81255849     -0.31027341     -3.66165347     -2.12215907      14      -1      -1       0      31     -4.18134384     -1.50373671      1.12343500      1.16834559      0.92476467      8.69617970      4.32524108      0.87682086      2.80737206      2.14767437
 Si              7.85974182      4.60567718      3.10529800     -0.09033875     -3.69954336      1.68534448      14      -1      -1       0      30     -4.05384388      3.41769273      1.04878679     -0.50156820      2.07681895     10.02720908     -6.12263178     -0.83082043     -3.59008718      6.08936015
 Si              9.68404385      5.59178963      4.02069801      1.02723426     -0.79592006      1.38249542      14      -1      -1      -1      32     -3.90553589      0.72600910     -0.19498164      4.18229447     -0.15788819      1.97338088     -2.93818211      3.07609568     -2.25521499      5.82833962
 Bi              0.29493015     -6.80140034      2.05719623     -3.03157144      0.26856958      6.39466924      83       0       1       0      30     46.43459004    -23.06481677      0.07070232      9.08093511      0.59871366    -17.20615096     -1.81844009      8.55858636     -0.85916943    -22.00479880
 17
 config_type=Bi_int virial="24.20247036      16.27107628      10.26027336      16.27107628      38.30353746     -11.60308264      10.26027336     -11.60308264      48.52845984" energy=11.380628705170322 cutoff=5.00000000 nneightol=1.20000000 pbc="T T T" Lattice="7.69007435       0.00000000       0.00000000       3.91576391       6.64744675       0.00000000       3.91890912       2.22964583       6.34168583" Properties=species:S:1:pos:R:3:force:R:3:Z:I:1:map_shift:I:3:n_neighb:I:1:local_energy:R:1:local_virial:R:9
 Si              1.94949729      1.14873724      0.82854044      1.71205451     -1.13164198      2.82410150      14       0       0       0      33     -3.92608311      2.54140474     -0.86447025      6.75473734     -0.68581237      1.95897251     -4.17447483      6.88462629     -4.62948449      7.74235653
 Si              0.10704157     -0.03834020      0.02180664     -1.36812464     -2.67286203      2.05408926      14       0       0       0      32     -3.78308401      2.32462122      6.38271549     -2.67558593      6.35234573      5.93737624     -5.90900718     -2.56514771     -5.72860635      5.70420531