1
Lattice="20.0 0.0 0.0 0.0 20.0 0.0 0.0 0.0 20.0" Properties=species:S:1:pos:R:3:force:R:3:Z:I:1 pbc="T T T" config_type=isolated_atom Energy=-0.0563881 virial="0.012863850172591408 0.0 -0.0 0.0 0.012863850172591408 -0.0 -0.0 -0.0 0.012863850172591408"
Si 10.0 10.0 10.0 0.0 0.0 0.0 14
14
Lattice="7.56311613909787 -0.1390180185849784 -0.10303045410862402 3.769512877212481 6.575673506707571 -0.1796285627098901 3.728357788268693 2.1162331091207847 6.197754909408754" Properties=species:S:1:pos:R:3:force:R:3:Z:I:1 pbc="T T T" config_type=Sb_vac Energy=-69.5903325 virial="13.833928861868275 8.13527076131487 7.598847572162407 8.13527076131487 4.563532684378004 4.515847753129953 7.598847572162407 4.515847753129953 -6.201225556383129"
Si 1.68248442 0.89963462 2.97878433 0.29962171 0.75146265 -0.44961846 14
Si 3.55687954 1.94531597 3.83400222 0.92958542 0.00083632 -0.22822613 14
Si 1.73731732 3.25463498 -0.18858053 0.87487983 -1.27708591 -1.42130439 14
Si 3.64323202 4.17046607 0.48884146 1.24265958 0.18095438 1.12343926 14
Si 3.66470477 4.16680672 2.99480108 -1.46580964 -0.86850967 -1.30456106 14
Si 5.4230892 5.3619553 3.56462445 1.92263132 -0.69593599 1.02502 14
Si 3.66259193 -0.16326345 -0.1692349 -0.9585549 0.49347744 -1.21237635 14
Si 5.46471383 0.84780168 0.63892005 0.86377985 0.4680794 -0.2752372 14
Si 5.63040805 0.93351546 2.89901533 -3.07721563 -2.14762281 0.52575252 14
Si 7.38346314 1.94201653 3.5583947 2.03628626 1.67376509 1.48263814 14
Si 5.70066802 3.02978523 -0.11127266 -0.88807164 0.42867824 -1.25505791 14
Si 7.57994062 4.28647969 0.38355041 -1.3963435 -0.15821259 1.78718028 14
Si 7.50656211 4.20897563 2.83950529 -2.31852913 -0.57736178 -1.02854967 14
Si 9.29547624 5.15890593 3.6097709 1.93508048 1.72747522 1.23090098 14
14
Lattice="7.660027668116348 -0.15172593260403555 -0.16564485309534685 3.7649717456913367 6.590586007944128 -0.12023144996983148 3.703148271533892 2.095353469663075 6.188963925794171" Properties=species:S:1:pos:R:3:force:R:3:Z:I:1 pbc="T T T" config_type=Sb_vac Energy=-69.08075345 virial="-2.0417790772302578 3.4375376066465395 2.4225188319332065 3.4375376066465395 -5.985925900479807 0.6600287745789717 2.4225188319332065 0.6600287745789717 0.7985783842994191"
Si 1.75827441 0.97359057 0.74893044 0.53514771 0.07582826 -1.24577155 14
Si 1.69562418 0.94362794 3.07469628 0.58945677 -0.42999849 0.38678128 14
Si 3.7134856 2.05611357 3.72311619 0.01498212 -1.11566619 0.0743798 14
Si 1.87361788 3.32005313 -0.13308471 -0.65271594 -0.82862555 0.11341727 14
Si 3.79871986 4.28191407 0.61766048 0.04488316 0.57617987 0.28390803 14
Si 3.67419572 4.2043149 2.96893518 -1.19681809 0.69450685 -0.10585151 14
Si 5.5503332 5.22272536 3.72390005 -0.18315027 1.49268685 0.40987021 14
Si 3.80132027 -0.25348406 -0.3442834 -1.01195108 -0.04958012 2.55826229 14
Si 5.57597546 0.90545454 0.50397321 0.55457151 0.16432983 0.26908345 14
Si 5.62516335 0.81448141 2.85088608 -0.42145054 0.46876205 0.25991145 14
Si 7.48350676 1.96011257 3.67829432 -0.21633322 0.7355986 -2.27046683 14
Si 5.65200739 3.1617544 -0.18916104 0.49511143 -0.03245728 0.35813764 14
Si 7.38239337 4.27770084 2.80204491 0.80382727 -1.30305554 -0.31243598 14
Si 9.33434089 5.2671418 3.67296031 0.64443918 -0.44850913 -0.77922556 14
14
Lattice="7.5904530427186225 -0.10554825908451664 -0.1246916269774299 3.707285350370114 6.556292537663229 -0.17470791428732502 3.716724069176757 2.132430541436567 6.217451826653834" Properties=species:S:1:pos:R:3:force:R:3:Z:I:1 pbc="T T T" config_type=Sb_vac Energy=-69.14050351 virial="5.588597687803804 5.583888160963953 3.676956643678235 5.583888160963953 0.05943032110297717 2.077181162770879 3.676956643678235 2.077181162770879 -3.7993237812661538"
Si 1.84201921 0.89784043 0.73789888 -0.25992389 0.419741 -2.25998393 14
Si 1.69944423 0.95172001 2.91839133 1.02519373 -0.09784212 2.2056157 14
Si 3.64746865 2.10749402 3.81904034 0.31302867 -0.41992348 -0.67944941 14
Si 1.73389043 3.13010905 -0.16695779 -0.63964059 -0.99402384 -0.99317355 14
Si 3.58042896 4.18297653 0.50662149 1.36768584 0.68878667 0.06830892 14
Si 3.5318648 4.29479653 2.84507003 -0.45585002 -0.34932332 0.64964472 14
Si 5.46826074 5.32177125 3.61118847 0.22172741 -0.18609953 0.42159085 14
Si 3.74313988 -0.13786955 -0.17376591 -1.16397929 -0.62815306 -0.49691443 14
Si 5.47101152 1.00043766 0.57271786 1.58826618 1.11725126 0.00722515 14
Si 5.64104826 0.86123949 2.87698433 -1.43820775 0.33531775 0.73728549 14
Si 7.49260543 1.938838 3.69244049 -0.36028953 1.17361039 -0.22057651 14
Si 7.50678803 4.2425017 0.40129309 -0.47017966 -0.39514293 1.08215485 14
Si 7.46982188 4.24475026 2.88044248 -2.11697303 -1.52623496 -1.07523296 14
Si 9.17748417 5.29267678 3.68930617 2.38914194 0.86203617 0.55350511 14
14
Lattice="7.651599031149428 -0.183778260309801 -0.17664566482800254 3.7289333768893482 6.585919206571396 -0.10302407205165533 3.7567852226207976 2.124456961483055 6.23225983224308" Properties=species:S:1:pos:R:3:force:R:3:Z:I:1 pbc="T T T" config_type=Sb_vac Energy=-70.5920276 virial="2.9452722854051174 2.8234461701737295 3.263128319524206 2.8234461701737295 -7.55714266081357 2.79585520260754 3.263128319524206 2.79585520260754 -5.856200380127971"
Si 1.81550428 0.88776682 0.69447797 -0.70084119 0.9519844 -0.6058047 14
Si 1.79063448 0.87603196 3.00323167 -0.49255007 -0.42206794 0.20110065 14
Si 3.57911 1.97614992 3.85629223 1.604035 0.55701079 -0.11576308 14
Si 1.83238389 3.25349789 -0.10303162 -0.28628964 -0.47514329 -0.41013121 14
Si 3.76728257 4.31630501 0.68529213 0.52996226 -0.43101731 -0.26318059 14
Si 3.65883051 4.26186352 3.06715886 -2.26804291 -1.10494668 -0.48920205 14
Si 5.48490289 5.24413937 3.67799071 2.50077234 0.64391313 1.33733618 14
Si 3.65384095 -0.09459839 -0.19252759 0.87490718 -0.72727336 -0.45038023 14
Si 5.58799416 0.95371595 2.94266986 -0.75265842 -0.69457307 0.52319975 14
Si 7.60224729 1.90456232 3.6137899 -0.3861917 0.13503857 0.55674169 14
Si 5.64429089 2.99307513 -0.14630267 -0.28390989 0.60831333 0.60666981 14
Si 7.59643094 4.25034871 0.54880776 -0.22909134 -0.30334451 -0.54332468 14
Si 7.52559039 4.104603 2.86494758 -0.58056341 0.60159921 0.32548189 14
Si 9.36232328 5.20772363 3.74933893 0.4704618 0.66050674 -0.67274344 14
14
Lattice="7.618054355046248 -0.19979766969965929 -0.11753904994320069 3.780453606668893 6.598313398767712 -0.16141200129659733 3.698139785625701 2.136856874575145 6.196793354335996" Properties=species:S:1:pos:R:3:force:R:3:Z:I:1 pbc="T T T" config_type=Sb_vac Energy=-69.53190391 virial="4.118091819248795 3.3594723603921293 2.3192450443483756 3.3594723603921293 -3.4818906738143216 2.163393012507421 2.3192450443483756 2.163393012507421 -6.537211576307015"
Si 1.89924125 0.93954331 0.60879344 -1.00741978 0.97408155 0.60823602 14
Si 1.7319056 0.98096027 3.09769823 -0.17099612 -1.34235706 -1.41616479 14
Si 3.60327925 1.96276297 3.78777082 1.09915851 1.03599571 0.57420819 14
Si 1.80344353 3.29779528 -0.13260051 0.11732015 -0.85471351 -0.00146659 14
Si 3.80244308 4.26258024 0.61071487 0.27693834 0.18243994 -0.06565611 14
Si 3.51613146 4.19651901 3.00074218 0.02506209 0.18351748 0.02118864 14
Si 5.44888967 5.34880068 3.71557351 0.0924735 -0.43707291 -0.09984516 14
Si 3.67345632 -0.17295863 -0.31750367 -0.50458838 -0.47538939 0.33182802 14
Si 5.4541246 0.7974768 0.61286339 1.32907565 0.79216807 0.35732434 14
Si 5.51372495 0.85377305 3.00729826 -0.56625482 -1.11965996 -0.23386895 14
Si 7.47157475 1.9056131 3.59882363 -0.55057716 0.55421215 -0.32412812 14
Si 7.52577118 4.3000517 0.41061753 -0.34279032 -0.68145664 0.95339047 14
Si 7.3653303 4.13141632 2.88204535 -0.62388396 0.48386528 -0.73134706 14
Si 9.22885308 5.16131591 3.73668234 0.82648231 0.70436929 0.02630108 14
14
Lattice="7.631608240042875 -0.12744168487591934 -0.1778936135148821 3.695399151291327 6.585476946106719 -0.15085516372516206 3.761427928120196 2.045840752657962 6.1475815167265875" Properties=species:S:1:pos:R:3:force:R:3:Z:I:1 pbc="T T T" config_type=Sb_vac Energy=-69.4229404 virial="4.3022983397006405 3.307263953761761 2.6921443510878023 3.307263953761761 -1.1849744550785197 2.906721847909071 2.6921443510878023 2.906721847909071 -2.750419469030349"
Si 1.86671802 1.01011283 0.65709041 -0.17116971 -0.3572764 -0.26765961 14
Si 1.7309973 0.93552678 3.00290567 1.36767918 -0.821814 -0.47273971 14
Si 3.69924486 2.02143684 3.79215025 0.00798775 0.5188035 0.39504212 14
Si 1.77199778 3.16595894 -0.20410328 -0.1437527 0.1066978 -0.36385154 14
Si 3.69291123 4.21872785 0.58081764 -0.1209715 0.83591946 0.62511816 14
Si 5.43158516 5.24222583 3.55223963 -0.31531748 -0.19979978 0.03376671 14
Si 3.70954483 -0.10373896 -0.32018278 -0.54752542 -1.00305175 0.13050028 14
Si 5.51060432 0.97782479 0.4385173 0.91648264 0.21890565 1.52505433 14
Si 5.60476811 0.90295976 2.95886686 -0.78473228 -0.981042 -1.36355793 14
Si 7.55223324 1.93814356 3.48292845 -0.78637312 1.19701715 0.64223292 14
Si 5.53122158 3.1664913 -0.27306662 1.21343758 0.12037836 -0.01963574 14
Si 7.59031712 4.26307454 0.47344947 -1.01280615 -0.00591114 -0.6428403 14
Si 7.45114295 4.2451492 2.80753236 -2.01688728 -1.56028847 -0.97274917 14
Si 9.20847674 5.18307912 3.5551755 2.3939485 1.93146161 0.75131947 14
14
Lattice="7.6325442400935755 -0.16617091217165858 -0.19054206616674088 3.779568473249993 6.555902780359075 -0.11922985972258526 3.727168630249428 2.0671591169950854 6.152428843472094" Properties=species:S:1:pos:R:3:force:R:3:Z:I:1 pbc="T T T" config_type=Sb_vac Energy=-68.69504718 virial="2.626126664512204 8.572989842619771 7.25358206215119 8.572989842619771 1.2344479160019675 1.8173831803643512 7.25358206215119 1.8173831803643512 1.6019378343410338"
Si 1.85282306 0.82466835 0.74546339 -0.48368157 1.42523472 -1.08002748 14
Si 1.75454456 0.87572693 3.05371411 -0.48386241 0.17042966 -0.17782838 14
Si 3.60133733 2.04942521 3.68264886 1.39766599 0.416626 0.32435434 14
Si 1.91900412 3.27500251 -0.20578734 -2.45284528 -1.76449645 0.14956454 14
Si 3.69537372 4.31311627 0.51428298 1.94699175 1.09362908 0.7957503 14
Si 5.47165496 5.24578256 3.5786886 0.25502888 -1.06690743 0.28127145 14
Si 3.69110949 -0.15126998 -0.32331941 0.01446029 -0.42575487 2.31720373 14
Si 5.56159386 0.95371929 0.49999882 0.20759208 -1.9054081 0.98086757 14
Si 5.65577068 0.78488684 2.86888465 -1.71854253 -0.29523527 -0.38195211 14
Si 7.45464398 1.87491799 3.64832475 0.88739575 0.71061997 -1.95719974 14
Si 5.67321369 3.03890598 -0.11007607 -1.11613597 1.52883715 -1.51664928 14
Si 7.47749694 4.2270519 0.50485654 1.87904801 -0.04419559 -0.20485555 14
Si 7.56203843 4.15079047 2.85544749 -2.77441548 -1.37867622 -0.93852773 14
Si 9.26166158 5.14860314 3.63233127 2.4413005 1.53529734 1.40802833 14
14
Lattice="7.618395188933079 -0.14403450172221155 -0.18290662628123394 3.742330830190494 6.518857186351212 -0.142294082964206 3.70998833207705 2.086521972448423 6.2342085327937315" Properties=species:S:1:pos:R:3:force:R:3:Z:I:1 pbc="T T T" config_type=Sb_vac Energy=-69.66263201 virial="12.081139913362259 9.997506073616577 7.008446307383686 9.997506073616577 4.178797823694759 3.6994215831431116 7.008446307383686 3.6994215831431116 -8.243278019786105"
Si 1.67261887 0.9833655 3.01520463 2.16175054 -1.13597151 -0.42079469 14
Si 3.60195439 2.0617684 3.83459625 0.46227673 -0.33167748 -0.39882937 14
Si 1.88229702 3.25585408 -0.17149293 -2.12966983 -0.64460506 -0.94270824 14
Si 3.65624132 4.26694789 0.5367997 1.95556641 0.60803156 1.08158315 14
Si 3.67461028 4.30388561 3.0184353 -3.32230875 -1.98980048 -1.53550172 14
Si 5.46618175 5.20916849 3.61421435 2.66844517 2.11801235 1.73731476 14
Si 3.76326311 -0.12650151 -0.33691163 -0.02942272 -0.20824525 0.03912078 14
Si 5.63928893 0.89132742 0.52692524 0.00648687 -1.39188037 1.24829429 14
Si 5.5929665 0.80220986 3.02196926 -1.77319277 -0.12947384 -0.9343909 14
Si 7.49478989 1.83736279 3.52468867 -0.92207207 1.24958892 1.30845365 14
Si 5.65087016 2.99152394 -0.18687097 -1.2126938 1.22419342 -0.95207349 14
Si 7.43644622 4.20212151 0.41289637 1.29057779 0.17821567 0.95108643 14
Si 7.36197611 4.06733706 2.90527736 0.1465048 0.15036766 -1.46910456 14
Si 9.26070115 5.11082052 3.66288094 0.69775164 0.30324441 0.2875499 14
14
Lattice="7.59458825507429 -0.14557626072576196 -0.18350204683607793 3.705115080295613 6.507015185372787 -0.10154732327953675 3.7491210314501497 2.0894183945483977 6.174220697158644" Properties=species:S:1:pos:R:3:force:R:3:Z:I:1 pbc="T T T" config_type=Sb_vac Energy=-69.19811281 virial="8.178527388165074 3.9439307884285975 3.705527396207724 3.9439307884285975 2.1745854147043726 1.9740917818920722 3.705527396207724 1.9740917818920722 -1.5941090465577168"
Si 1.75386364 0.94750877 0.58954225 -0.45917969 -0.46880957 0.39641816 14
Si 3.6812151 2.00896592 3.72317764 -0.50623621 -0.89307881 0.74211122 14
Si 1.71859803 3.14665952 -0.25087317 0.83947915 0.25413294 -0.07261728 14
Si 3.73951154 4.16603074 0.54959915 -2.12436335 0.91463906 0.78831156 14
Si 3.50412442 4.14312611 2.9545509 0.77820358 0.31825178 -1.17106909 14
Si 5.48585663 5.15670666 3.58868683 0.25609937 0.31824243 0.21558925 14
Si 3.69943732 -0.14651172 -0.23220248 -1.55589549 0.11411645 -1.51066791 14
Si 5.47465826 0.7872832 0.58235253 1.88726539 1.63038105 0.62723289 14
Si 5.59958795 0.94338477 2.92244802 -0.71703198 -1.36942333 -0.39834758 14
Si 7.44559304 2.02321783 3.54340867 1.04650108 -0.00202147 0.82327623 14
Si 5.52819642 3.10310936 -0.14832175 1.5219088 -1.35314374 -0.46055198 14
Si 7.50771985 4.22607388 0.37774628 -0.20795759 -0.94878621 1.42130604 14
Si 7.52519359 4.21540103 2.86913679 -1.54314064 -0.41462068 -1.80983939 14
Si 9.33092646 5.13918351 3.68658112 0.78434757 1.90012011 0.40884787 14
14
Lattice="7.600789684956921 -0.17377837029452894 -0.13835791937428532 3.765083534199243 6.551297185866661 -0.16178002563217103 3.7013478812997387 2.066089436966618 6.154989543073889" Properties=species:S:1:pos:R:3:force:R:3:Z:I:1 pbc="T T T" config_type=Sb_vac Energy=-70.30003654 virial="-2.5537120027592164 6.399306960493175 5.40348363331852 6.399306960493175 9.046399979244812 -3.0433273954688325 5.40348363331852 -3.0433273954688325 1.5604258260051262"
Si 1.90003093 1.00706859 0.68356353 -0.16790018 -0.68725522 -0.8592435 14
Si 1.8391269 0.85428334 2.9421018 -1.82105542 0.09309312 0.37501713 14
Si 3.53152686 1.9664844 3.79084964 2.234008 0.43381807 0.60926683 14
Si 1.87467328 3.11000163 -0.18182046 -0.25300405 1.25545965 1.09052526 14
Si 3.54676509 4.12461829 2.94031325 -0.43055309 0.35428652 -0.10262286 14
Si 5.41892061 5.31408873 3.70904258 0.67829944 -1.24375692 -1.08240413 14
Si 3.70803095 -0.24735312 -0.15768583 -0.39359486 1.49917089 -1.4608041 14
Si 5.47623985 0.90618669 0.65389236 0.61914939 0.3762386 0.19809264 14
Si 5.59423831 0.74650099 2.99645357 -0.95523934 1.63344987 -0.46850284 14
Si 7.49222449 1.9286243 3.5610759 0.44738079 -1.06793942 0.79621296 14
Si 5.63744951 3.05065737 -0.23633709 0.20612806 0.27040154 0.22379057 14
Si 7.56615026 4.28386723 0.53047749 -0.01724841 -2.67726785 -0.38672576 14
Si 7.37299744 4.06838151 2.79558589 -0.74903173 1.23532191 0.69226374 14
Si 9.22472652 5.20365812 3.58580321 0.60266138 -1.47502074 0.37513406 14
15
Lattice="7.5770067193151815 -0.1531704550060778 -0.12990916231039784 3.7285361558812005 6.515448299499117 -0.19143797741434565 3.785774240486396 2.0793459555354996 6.174935578481938" Properties=species:S:1:pos:R:3:force:R:3:Z:I:1 pbc="T T T" config_type=Sb_vac Energy=-77.2013423 virial="8.236735818209098 10.13363520079393 6.307152064178293 10.13363520079393 4.721460263839835 2.8999510181261585 6.307152064178293 2.8999510181261585 2.384697090551327"
Si 1.77874185 0.95333101 0.69190999 0.43823658 -0.29651811 -0.88399774 14
Si 1.83741987 0.95370949 3.03141992 -0.93146469 -0.22927248 -0.65510855 14
Si 3.57850381 2.08419416 3.79099274 1.70893856 0.73252362 0.28589103 14
Si 1.84138515 3.17951181 -0.21694688 -2.0265923 -0.83737727 -0.29731713 14
Si 3.58749677 4.24516023 0.54447751 2.00607222 0.7105059 -0.15936136 14
Si 3.54121026 4.27910652 2.81147667 0.05283638 0.10415955 1.32006876 14
Si 5.51746598 5.33368088 3.62174453 0.273703 -1.39357518 -0.23660203 14
Si 3.73054417 -0.24176329 -0.25746672 -1.44465596 -0.0911997 -0.31314288 14
Si 5.50617356 0.78448883 0.64373294 0.86900627 0.29923514 -0.69943115 14
Si 5.50758307 0.81358168 2.90956203 -0.98123237 1.08718809 0.54400204 14
Si 7.44313979 1.82827651 3.52673803 0.37537344 1.33548589 0.7343013 14
Si 5.58902435 2.98431792 -0.1515937 -1.49907318 0.11959345 -0.68065196 14
Si 7.41895836 4.11362985 0.42771546 1.42579674 0.35599645 0.86656472 14
Si 7.51163907 4.1668405 2.8411835 -2.31453733 -1.26384804 -0.92158297 14
Si 9.20948237 5.27292829 3.6257698 2.04759262 -0.63289731 1.09636792 14
14
Lattice="7.613231729984494 -0.10167473534696699 -0.11126188011105251 3.75701958468441 6.514797348653385 -0.13373484623663742 3.7187838543317433 2.112516698215225 6.228977208347524" Properties=species:S:1:pos:R:3:force:R:3:Z:I:1 pbc="T T T" config_type=Sb_vac Energy=-70.00399344 virial="4.159718204613017 5.5204672170774005 4.683323797109462 5.5204672170774005 5.092310342108345 0.8854786969184975 4.683323797109462 0.8854786969184975 -4.48243245556894"
Si 1.79786284 0.85879098 0.74163396 -0.0208788 1.03238915 -2.43656985 14
Si 1.71996957 1.06498443 2.92964902 -0.44190124 -0.46996768 2.009107 14
Si 3.66669141 1.9550214 3.80555947 0.31909062 0.97613944 -0.1829433 14
Si 1.86434183 3.15641957 -0.25918584 -0.22742778 -0.7556678 0.80796328 14
Si 3.60499837 4.21901577 2.96332663 1.10606807 -1.31283205 -0.02418892 14
Si 5.5424767 5.35667 3.63182386 0.25770085 0.05398905 -0.343427 14
Si 3.70204411 -0.18977762 -0.18956391 -0.61251773 0.48255869 -0.29670549 14
Si 5.55007668 0.88100954 0.54472896 0.89589126 1.02091695 1.10246423 14
Si 5.64278243 0.86894721 3.03289888 -1.81617269 -1.01092249 -1.45596819 14
Si 7.36301331 2.05525048 3.69239547 1.7395122 -0.1729416 0.50749566 14
Si 5.56950564 3.17185297 -0.05954565 -0.66468959 -0.82495023 -1.23656053 14
Si 7.54901426 4.20912169 0.42442914 0.63302379 -0.94415128 1.32448432 14
Si 7.52026828 4.18582457 2.93489676 -2.01542315 0.27879948 -1.80262514 14
Si 9.36380588 5.13686741 3.59446159 0.84772418 1.64664038 2.02747392 14
14
Lattice="7.566539660859691 -0.1327228800114133 -0.1974243340468277 3.7759231559047084 6.603016480174795 -0.1861461419380934 3.7820646448067823 2.1114109877769596 6.224230479055265" Properties=species:S:1:pos:R:3:force:R:3:Z:I:1 pbc="T T T" config_type=Sb_vac Energy=-70.30554812 virial="4.994116479146466 3.6603140025683847 4.587586714419357 3.6603140025683847 4.3070476400241455 -0.34709198540082176 4.587586714419357 -0.34709198540082176 -4.231111837539935"
Si 1.7590967 0.88577246 3.0961993 0.64305192 1.50979951 -0.40131885 14
Si 3.66908306 2.08994914 3.78188557 -0.2906639 -0.85045409 0.14883305 14
Si 1.74914562 3.25912796 -0.24999229 -0.12659868 -0.5338561 -0.35987308 14
Si 3.61941464 4.20483022 0.4987832 0.63746669 0.28855128 0.76385617 14
Si 3.64983148 4.18236722 2.89482973 -0.4704387 1.38868042 -0.17991248 14
Si 5.54833046 5.40096033 3.62835297 -0.04980664 -2.02284996 -0.065781 14
Si 3.6340183 -0.24622007 -0.25990766 0.29845284 1.27678341 -0.51867035 14
Si 5.51176488 0.95930507 0.46427568 -0.27896046 -1.05435914 0.86498642 14
Si 5.51186845 0.92733018 2.91000362 -0.23492607 -0.8013559 -0.52698026 14
Si 7.45904716 1.92402414 3.56734613 -0.19951625 0.66653876 0.27968174 14
Si 5.53232226 3.09474278 -0.25176527 0.50602608 1.12252526 -1.0476312 14
Si 7.52272786 4.27854996 0.42491857 -1.05657185 -1.08900554 -0.33160031 14
Si 7.46302535 4.20246566 2.71747047 -1.51415684 -0.80771628 0.6484505 14
Si 9.22139812 5.23620474 3.52589973 2.13664186 0.90671837 0.72595963 14
14
Lattice="7.6368405434500595 -0.12745517979359566 -0.16137980621604917 3.764598361430999 6.582925124692299 -0.1717716124839284 3.7720090139597375 2.054453013452087 6.194317286681156" Properties=species:S:1:pos:R:3:force:R:3:Z:I:1 pbc="T T T" config_type=Sb_vac Energy=-69.39494138 virial="2.540410378239116 2.791269621079162 2.3606532359965775 2.791269621079162 2.081485020893319 2.4916443902040704 2.3606532359965775 2.4916443902040704 -4.373445874655098"
Si 1.92087234 0.94787704 0.59184966 -1.05966138 1.03142865 0.46588969 14
Si 1.81975868 0.87926565 3.0356771 -0.01420202 0.61058615 -1.27794146 14
Si 3.70836856 1.99464438 3.78424756 0.38011953 0.662227 0.56939114 14
Si 1.88224336 3.27290084 -0.29440812 -1.01294024 -1.06401102 0.84758378 14
Si 3.78166748 4.24956883 0.46910147 0.64362034 0.98152873 0.63248392 14
Si 5.59905924 5.32638595 3.6095411 -0.85335269 -0.66919019 -0.15191588 14
Si 3.65012994 -0.18699386 -0.29358361 1.10664354 0.06423375 -0.6591499 14
Si 5.58679676 0.89071591 0.57795463 -0.17521545 -0.54545649 0.10767764 14
Si 5.55376868 0.81195582 2.94281105 0.51615863 0.92598813 -0.60333812 14
Si 7.57084925 1.96701784 3.5139189 -0.83149769 0.08230127 0.3941415 14
Si 5.71966499 3.08014583 -0.16529444 -1.72007841 -0.75267715 -1.64869572 14
Si 7.49521212 4.23532044 0.37633198 1.94078159 0.38796655 0.66702115 14
Si 7.42887001 4.25926989 2.76699304 0.19400783 -1.24387035 -0.65986642 14
Si 9.27197219 5.28381714 3.56788337 0.88561643 -0.47105502 1.31671868 14
14
Lattice="7.651733100807603 -0.11437308918229598 -0.1673485834477196 3.7899958340064583 6.510233250512743 -0.11833634737450668 3.7130151461588605 2.085331576960859 6.194304511465232" Properties=species:S:1:pos:R:3:force:R:3:Z:I:1 pbc="T T T" config_type=Sb_vac Energy=-68.7545377 virial="6.369451150770039 9.404888019818474 7.822667172272283 9.404888019818474 0.1642538586674096 3.7248464543642377 7.822667172272283 3.7248464543642377 -0.9619976630503753"
Si 1.92608495 0.93400163 0.71944338 -0.06064227 0.20944384 -1.89044407 14
Si 1.7799539 0.89012544 2.91235522 -0.84068498 0.18584881 1.9852641 14
Si 3.60485685 2.08452975 3.76494165 0.35193378 -0.35703554 0.3636026 14
Si 1.88234162 3.14198233 -0.19222123 -2.35493942 -0.90924213 -0.75239744 14
Si 3.63419248 4.19717411 0.51705919 2.28659379 1.07169171 0.78768714 14
Si 3.52785563 4.27276301 2.87241291 -1.18337333 -0.40770952 -0.43318077 14
Si 5.41461081 5.1988428 3.63098391 1.91300282 0.37272602 0.23212658 14
Si 3.77163624 -0.21117305 -0.207216 -2.17939849 -0.17243891 -1.17197374 14
Si 5.48406814 0.81651762 0.54763287 2.68436041 1.27562262 1.1905543 14
Si 7.40249883 1.86003487 3.63051059 0.32929232 0.1514568 -0.73702692 14
Si 5.72632941 3.09913079 -0.10143264 -2.46779555 -0.85117263 -1.66008465 14
Si 7.5429715 4.18150759 0.44936431 1.90613847 -0.46754593 1.37639144 14
Si 7.53367102 4.17393775 2.86965534 -2.58747798 -1.24064101 -0.8384434 14
Si 9.25181302 5.29020919 3.55500211 2.20299045 1.13899584 1.54792483 14
15
Lattice="7.633822826506678 -0.12769175100493085 -0.10899656400210411 3.774640208304485 6.561259700711994 -0.19072215799884143 3.7645037678467688 2.1316899468213055 6.153980909263106" Properties=species:S:1:pos:R:3:force:R:3:Z:I:1 pbc="T T T" config_type=Sb_vac Energy=-77.18417514 virial="3.5642508759892526 0.37528534370605204 0.7874901608767062 0.37528534370605204 1.79263729677612 2.7363706039876265 0.7874901608767062 2.7363706039876265 4.862188889184115"
Si 1.9037993 1.02125034 0.71006119 -0.16262735 -0.21858702 -1.91008259 14
Si 1.70614683 1.05273025 2.89899047 1.75036122 -1.50762771 1.88755405 14
Si 3.74830373 2.02924451 3.79302072 -0.58075043 -0.01456284 0.02849253 14
Si 1.74696005 3.18390167 -0.20114338 1.40962088 -0.15268502 0.1607612 14
Si 3.79469529 4.26522105 0.45488769 -0.53502657 0.11674401 0.95036828 14
Si 3.55092771 4.24096314 2.9568634 1.77993566 -0.1383243 -0.99461583 14
Si 5.61081263 5.33410542 3.66527996 -0.75912048 0.14175891 -1.43193706 14
Si 3.68645442 -0.22926682 -0.25411968 -0.48464966 0.58539937 0.72926396 14
Si 5.53310798 0.85208409 0.50967406 0.93593151 -0.22295567 0.76419895 14
Si 5.61928686 0.82847616 2.90701482 -0.36846956 0.92465959 -0.65636732 14
Si 7.53750271 1.90385436 3.64241441 -1.05475735 1.54394655 -1.00426816 14
Si 5.71040978 3.02381461 -0.16432102 -0.11631714 0.89054291 -0.73629245 14
Si 7.63297473 4.25934738 0.50399338 -1.01341382 -0.71274568 -0.69216042 14
Si 7.53024913 4.22306373 2.73943296 -0.62164853 -0.55938503 1.89749025 14
Si 9.38668053 5.30198802 3.58188282 -0.17906837 -0.67617806 1.00759459 14
14
Lattice="7.595842339071511 -0.1378804220322892 -0.1916278868061955 3.7219563274092553 6.53838707053299 -0.13759818200946589 3.761749534039643 2.1394743919031014 6.220040839043135" Properties=species:S:1:pos:R:3:force:R:3:Z:I:1 pbc="T T T" config_type=Sb_vac Energy=-70.40223143 virial="5.283661149375786 8.75412952092158 6.692233363208635 8.75412952092158 -1.3029503607196922 2.042517537856978 6.692233363208635 2.042517537856978 2.587545261270658"
Si 1.82147963 0.98227654 0.63397696 0.0216074 -0.41894259 -0.09107089 14
Si 1.7607854 1.01760638 2.94825989 0.16817074 -0.07434642 0.20382134 14
Si 1.73433161 3.1686534 -0.12593326 -0.88558902 -0.07405596 -1.47220852 14
Si 3.58329765 4.17811981 0.64702579 1.03096833 0.42898128 -0.29852547 14
Si 3.6896277 4.23331424 2.9007666 -1.69667255 -0.27436364 0.5406265 14
Si 5.48128246 5.33354995 3.61762777 1.76638247 0.25663501 0.93750538 14
Si 3.73377341 -0.14492215 -0.24893892 -2.01381743 -1.23701775 -1.22847362 14
Si 5.47149052 0.81146953 0.59000332 1.93570401 1.55418604 0.47918785 14
Si 5.55641809 0.94523725 2.88439364 -1.07279969 -0.24712802 -0.23477314 14
Si 7.41932228 1.98185952 3.54164562 1.10087362 0.93471074 0.8291343 14
Si 5.54121445 3.09995891 -0.16501046 -1.00721593 -0.70890954 -1.22849496 14
Si 7.41103772 4.16634858 0.47440784 0.83705103 0.61018102 -0.65288493 14
Si 7.51511019 4.22082317 2.72983639 -1.30446235 -0.17967612 1.21979276 14
Si 9.29540929 5.33617774 3.57644693 1.11979938 -0.57025405 0.9963634 14
14
Lattice="7.582181734393132 -0.1699959735344779 -0.17242213579046323 3.754156836570037 6.533703884652843 -0.19546350342177932 3.6943962830706774 2.1065591848118776 6.205883903507713" Properties=species:S:1:pos:R:3:force:R:3:Z:I:1 pbc="T T T" config_type=Sb_vac Energy=-69.38154852 virial="4.61031780381479 -0.3651267501039414 0.2662819068495732 -0.3651267501039414 -1.0364317802953904 2.2670137942178026 0.2662819068495732 2.2670137942178026 -4.289668519964023"
Si 1.90711248 1.01165067 0.61314442 -0.00894984 -0.24848567 0.06124105 14
Si 1.68761482 1.03135449 3.06940648 2.30376486 -1.75651798 -1.05635216 14
Si 3.67198849 2.08916138 3.73166269 -0.78354305 -0.72683014 0.88817795 14
Si 1.75301655 3.25425586 -0.28308572 0.06179748 -0.13785829 1.47589162 14
Si 3.73462552 4.14777207 0.53987586 -0.00115041 0.01346486 0.3068473 14
Si 3.57806851 4.18172542 2.96427711 0.70468556 0.95512006 -1.12579468 14
Si 5.50469098 5.27116047 3.6843315 0.51056051 0.22293369 -1.59120606 14
Si 5.52594875 0.80822622 0.48288791 -0.23141964 -0.84069622 0.60216259 14
Si 5.45417183 0.89388337 3.02424377 0.87881556 -0.80731925 -1.02599278 14
Si 7.49832892 1.84066512 3.57093676 -2.15068548 1.76932347 0.77414876 14
Si 5.62074503 2.98453724 -0.31598463 -0.09723624 0.74789603 0.10453754 14
Si 7.47354969 4.23850238 0.43072962 -0.06570459 0.01385342 -0.60987862 14
Si 7.43237118 4.07898946 2.73611941 -0.63639298 0.05190408 0.84894935 14
Si 9.31055115 5.13977002 3.5303818 -0.48454174 0.74321195 0.34726814 14
14
Lattice="7.6186640691162495 -0.17792272084888802 -0.141893886572366 3.740541567751208 6.597538703597225 -0.15906000728619293 3.7607898451446515 2.0517027707031565 6.224485562729485" Properties=species:S:1:pos:R:3:force:R:3:Z:I:1 pbc="T T T" config_type=Sb_vac Energy=-70.11999319 virial="1.7804195110810845 5.090868591607362 4.0305391316941215 5.090868591607362 -0.1768258908745051 0.7969128458594587 4.0305391316941215 0.7969128458594587 -4.262158406631359"
Si 1.8021697 0.90856698 2.93677364 0.30409532 -0.03516343 0.30238237 14
Si 3.6815293 2.05722681 3.71353287 0.02676735 -0.45896773 -0.34805351 14
Si 1.9062669 3.31418371 -0.14006568 -1.01573237 -0.83004987 -0.65786671 14
Si 3.67049354 4.30253182 0.64075008 1.77701737 0.42687636 -0.34520911 14
Si 3.53092773 4.26611758 2.89923987 1.35305111 0.23407104 1.24583371 14
Si 5.58586962 5.33909203 3.76692515 -0.69844691 -0.35199339 -0.97531042 14
Si 3.61301802 -0.11782893 -0.24056497 0.69419748 -0.10921469 -0.11798402 14
Si 5.62515506 0.93829277 0.55369481 -0.78476557 -1.58141292 -0.0131843 14
Si 5.56816461 0.72903415 2.88710563 0.24920619 1.91183425 0.08859558 14
Si 7.53743948 1.88655673 3.550713 -0.58704413 0.59325187 0.29596019 14
Si 5.65724971 3.0742874 -0.10684693 -0.39540051 1.43204931 -0.99184504 14
Si 7.60721408 4.20200779 0.39219998 -0.51543097 0.81649605 1.2243267 14
Si 7.482176 4.2545049 2.87966706 -0.25926654 -1.03658276 -0.77884389 14
Si 9.37963571 5.28469004 3.66281987 -0.1482478 -1.01119411 1.07119847 14
14
Lattice="7.616888653647144 -0.17809527499560723 -0.1644108964137962 3.7716544991863477 6.528797763667136 -0.11892699357588589 3.7377057535538416 2.070885603068179 6.168099639168782" Properties=species:S:1:pos:R:3:force:R:3:Z:I:1 pbc="T T T" config_type=Sb_vac Energy=-69.06442569 virial="0.822682998281724 2.506116602727305 2.444203197812213 2.506116602727305 -1.4917444083322975 0.9586461384345437 2.444203197812213 0.9586461384345437 1.1421273315962712"
Si 1.75434332 0.8612482 0.72467465 -0.11321869 0.6054407 -1.80760708 14
Si 1.78717856 0.92337691 2.9959726 0.15689897 1.15768705 0.32874907 14
Si 3.70334106 1.95232468 3.86712139 0.48440342 0.05093176 0.07842379 14
Si 1.75628835 3.26285714 -0.19522875 1.03531094 -2.04435465 -0.81653994 14
Si 3.66846605 4.28740846 0.50933737 0.76530526 0.39982862 0.50862509 14
Si 3.65072159 4.15485953 2.92968574 -0.65587129 -0.32591453 -0.55602514 14
Si 5.47805039 5.34419612 3.56860285 0.77861968 -1.48786461 1.10612619 14
Si 3.67749602 -0.24165341 -0.26295301 -1.17038172 -0.08758869 1.21465891 14
Si 5.45690194 0.75969565 0.63962394 1.05260759 0.4865669 -1.01667676 14
Si 5.60114265 0.8618716 2.82611359 -0.20554072 0.1061726 1.70991687 14
Si 7.54804804 1.90873207 3.68157048 -0.3729058 -0.12714473 -1.52796885 14
Si 5.56955695 2.95894686 -0.11938753 -0.18056078 0.26179596 -0.19334399 14