1
Lattice="20.0 0.0 0.0 0.0 20.0 0.0 0.0 0.0 20.0" Properties=species:S:1:pos:R:3:force:R:3:Z:I:1 pbc="T T T" config_type=isolated_atom energy=-0.0 virial="0.0 0.0 0.0 0.0 0.0 0.0 0.0 0.0 0.0"
Si 10.0 10.0 10.0 0.0 0.0 0.0 14
15
Lattice="7.56311613909787 -0.1390180185849784 -0.10303045410862402 3.769512877212481 6.575673506707571 -0.1796285627098901 3.728357788268693 2.1162331091207847 6.197754909408754" Properties=species:S:1:pos:R:3:force:R:3:Z:I:1 pbc="T T T" config_type=Sb_vac energy=-74.03450875 virial="21.039055052866896 4.938152276458742 5.050007547537077 4.938152276458742 10.079206882256985 5.605284702679449 5.050007547537077 5.605284702679449 10.055627019407506"
Si 1.68248442 0.89963462 2.97878433 0.09910377 0.4480065 -1.00739321 14
Si 3.55687954 1.94531597 3.83400222 0.88931255 -0.218411 -5.73680932 14
Si 1.73731732 3.25463498 -0.18858053 0.42386434 -1.81119318 -1.52588103 14
Si 3.64323202 4.17046607 0.48884146 1.32796686 -0.55400589 1.57155463 14
Si 3.66470477 4.16680672 2.99480108 -1.54271952 -0.68568169 -1.46814909 14
Si 5.4230892 5.3619553 3.56462445 2.06072481 -0.51677298 1.18880653 14
Si 3.66259193 -0.16326345 -0.1692349 -1.6872624 0.48504239 -1.11083607 14
Si 5.46471383 0.84780168 0.63892005 -1.65063567 1.65181806 0.70296287 14
Si 5.63040805 0.93351546 2.89901533 -3.07513242 -2.13839012 0.90011909 14
Si 7.38346314 1.94201653 3.5583947 2.23363152 1.74249759 1.6328386 14
Si 5.70066802 3.02978523 -0.11127266 -1.09192484 0.80742567 -1.33728198 14
Si 7.57994062 4.28647969 0.38355041 -1.16961265 -0.05976828 1.83387251 14
Si 7.50656211 4.20897563 2.83950529 -2.39591108 -0.58707907 -1.10541013 14
Si 9.29547624 5.15890593 3.6097709 1.96953428 1.61169898 1.24217368 14
Sb -0.18585601 -0.00031096 -0.14610667 3.60906046 -0.17518698 4.21943292 51
15
Lattice="7.660027668116348 -0.15172593260403555 -0.16564485309534685 3.7649717456913367 6.590586007944128 -0.12023144996983148 3.703148271533892 2.095353469663075 6.188963925794171" Properties=species:S:1:pos:R:3:force:R:3:Z:I:1 pbc="T T T" config_type=Sb_vac energy=-73.75638466 virial="13.089868923367167 8.05260933290869 5.295205035630126 8.05260933290869 8.235367722427274 1.050188180388872 5.295205035630126 1.050188180388872 10.646034226701973"
Si 1.75827441 0.97359057 0.74893044 5.88700984 3.38940419 0.99050983 14
Si 1.69562418 0.94362794 3.07469628 0.53336343 -0.46046253 0.33005404 14
Si 3.7134856 2.05611357 3.72311619 -0.03724322 -1.28500358 -1.63694788 14
Si 1.87361788 3.32005313 -0.13308471 -1.30209951 -0.79452236 0.10623604 14
Si 3.79871986 4.28191407 0.61766048 0.02667504 -3.52183722 1.40467952 14
Si 3.67419572 4.2043149 2.96893518 -1.18860534 0.89723699 0.06692406 14
Si 5.5503332 5.22272536 3.72390005 0.09594271 1.42027682 0.51062236 14
Si 3.80132027 -0.25348406 -0.3442834 -1.144031 -0.56768077 2.51885375 14
Si 5.57597546 0.90545454 0.50397321 -1.13679191 0.93683019 0.66833438 14
Si 5.62516335 0.81448141 2.85088608 -0.40009293 0.4437156 0.4787373 14
Si 7.48350676 1.96011257 3.67829432 -0.16617428 0.98062133 -2.15448105 14
Si 5.65200739 3.1617544 -0.18916104 1.07625648 0.30224951 0.43281574 14
Si 7.38239337 4.27770084 2.80204491 0.6924765 -1.35216285 -0.65489871 14
Si 9.33434089 5.2671418 3.67296031 0.43810426 -0.53477455 -0.7035331 14
Sb -0.01948462 -0.1156248 0.014083 -3.37479008 0.14610925 -2.3579063 51
15
Lattice="7.5904530427186225 -0.10554825908451664 -0.1246916269774299 3.707285350370114 6.556292537663229 -0.17470791428732502 3.716724069176757 2.132430541436567 6.217451826653834" Properties=species:S:1:pos:R:3:force:R:3:Z:I:1 pbc="T T T" config_type=Sb_vac energy=-73.99373475 virial="15.884354276444514 8.616410823445593 6.0300911699082755 8.616410823445593 10.135642570386208 2.513548533187768 6.0300911699082755 2.513548533187768 10.4283512178073"
Si 1.84201921 0.89784043 0.73789888 3.21619981 2.38153872 -0.68548811 14
Si 1.69944423 0.95172001 2.91839133 1.16054515 -0.0110127 2.60404888 14
Si 3.64746865 2.10749402 3.81904034 0.36582137 -0.39814402 -4.51846839 14
Si 1.73389043 3.13010905 -0.16695779 -0.55587745 -0.53312902 -1.15284725 14
Si 3.58042896 4.18297653 0.50662149 1.40569803 -2.30220546 1.03266847 14
Si 3.5318648 4.29479653 2.84507003 -0.42659991 -0.10056248 0.66747105 14
Si 5.46826074 5.32177125 3.61118847 0.25730154 -0.28443117 0.39241901 14
Si 3.74313988 -0.13786955 -0.17376591 -0.81104087 -0.81363142 -0.65848524 14
Si 5.47101152 1.00043766 0.57271786 0.65897029 2.09951501 0.54113085 14
Si 5.64104826 0.86123949 2.87698433 -1.3689955 0.21452877 0.72641035 14
Si 7.49260543 1.938838 3.69244049 -0.44386873 1.22667384 -0.25822955 14
Si 7.50678803 4.2425017 0.40129309 -0.88810108 -0.65345538 0.98073548 14
Si 7.46982188 4.24475026 2.88044248 -1.9267337 -1.43480885 -1.2122738 14
Si 9.17748417 5.29267678 3.68930617 2.37542366 0.90901522 0.95577481 14
Sb -0.04088901 -0.11599189 -0.06677213 -3.01874262 -0.29989106 0.58513345 51
15
Lattice="7.651599031149428 -0.183778260309801 -0.17664566482800254 3.7289333768893482 6.585919206571396 -0.10302407205165533 3.7567852226207976 2.124456961483055 6.23225983224308" Properties=species:S:1:pos:R:3:force:R:3:Z:I:1 pbc="T T T" config_type=Sb_vac energy=-74.98551742 virial="11.815813786489269 7.230831284034698 5.649832341368007 7.230831284034698 0.8060098590967318 2.9384649726595593 5.649832341368007 2.9384649726595593 8.764906646435922"
Si 1.81550428 0.88776682 0.69447797 2.68941983 2.917683 0.53857552 14
Si 1.79063448 0.87603196 3.00323167 -0.57723771 -0.47079512 0.23468894 14
Si 3.57911 1.97614992 3.85629223 1.61872848 0.34823897 -4.67264749 14
Si 1.83238389 3.25349789 -0.10303162 -0.14058284 -0.6058185 -0.27076415 14
Si 3.76728257 4.31630501 0.68529213 0.35931928 -2.14793717 0.27755939 14
Si 3.65883051 4.26186352 3.06715886 -2.25366241 -1.02208834 -0.65829038 14
Si 5.48490289 5.24413937 3.67799071 2.56814219 0.60468351 1.37674655 14
Si 3.65384095 -0.09459839 -0.19252759 1.47365757 -0.70498458 -0.36219997 14
Si 5.58799416 0.95371595 2.94266986 -0.50826669 -0.87654005 -0.04370989 14
Si 7.60224729 1.90456232 3.6137899 -0.61335955 0.17434171 0.65979719 14
Si 5.64429089 2.99307513 -0.14630267 -0.1107437 0.2153495 0.6352528 14
Si 7.59643094 4.25034871 0.54880776 -0.39079218 -0.18980979 -0.56002606 14
Si 7.52559039 4.104603 2.86494758 -0.50388858 0.56731742 0.29622603 14
Si 9.36232328 5.20772363 3.74933893 0.33792798 0.80815522 -0.5490316 14
Sb -0.12392301 -0.01493505 -0.12432522 -3.94866168 0.38220421 3.09782311 51
15
Lattice="7.618054355046248 -0.19979766969965929 -0.11753904994320069 3.780453606668893 6.598313398767712 -0.16141200129659733 3.698139785625701 2.136856874575145 6.196793354335996" Properties=species:S:1:pos:R:3:force:R:3:Z:I:1 pbc="T T T" config_type=Sb_vac energy=-74.47857609 virial="15.576486114116461 5.435635783567737 4.86170886691883 5.435635783567737 6.682493746380919 3.2634992360314667 4.86170886691883 3.2634992360314667 4.470799090215731"
Si 1.89924125 0.93954331 0.60879344 2.63858125 3.15075725 2.01183444 14
Si 1.7319056 0.98096027 3.09769823 -0.31696419 -1.36934638 -1.44412532 14
Si 3.60327925 1.96276297 3.78777082 1.00792607 0.91371476 -2.15875892 14
Si 1.80344353 3.29779528 -0.13260051 0.16598064 -0.55874531 -0.12500004 14
Si 3.80244308 4.26258024 0.61071487 0.60650814 -2.55800469 0.85780735 14
Si 3.51613146 4.19651901 3.00074218 -0.00386891 0.64953209 -0.26292069 14
Si 5.44888967 5.34880068 3.71557351 0.15260568 -0.51960557 -0.06896842 14
Si 3.67345632 -0.17295863 -0.31750367 -0.13484409 -0.62009127 0.15112386 14
Si 5.4541246 0.7974768 0.61286339 -0.13051808 1.81570056 0.93093334 14
Si 5.51372495 0.85377305 3.00729826 -0.28053523 -1.24435257 -0.44193084 14
Si 7.47157475 1.9056131 3.59882363 -0.55412723 0.64869027 -0.27826833 14
Si 7.52577118 4.3000517 0.41061753 -0.70356766 -0.81773416 0.86326506 14
Si 7.3653303 4.13141632 2.88204535 -0.49523573 0.55219027 -0.83939606 14
Si 9.22885308 5.16131591 3.73668234 0.80545406 0.58119922 0.43325196 14
Sb -0.05411198 -0.06187873 -0.02882797 -2.75739474 -0.62390448 0.37115262 51
15
Lattice="7.631608240042875 -0.12744168487591934 -0.1778936135148821 3.695399151291327 6.585476946106719 -0.15085516372516206 3.761427928120196 2.045840752657962 6.1475815167265875" Properties=species:S:1:pos:R:3:force:R:3:Z:I:1 pbc="T T T" config_type=Sb_vac energy=-74.20744211 virial="14.854152282428998 5.70927299413457 4.0622873391483765 5.70927299413457 8.914041068128295 1.595340619905986 4.0622873391483765 1.595340619905986 12.189328145807067"
Si 1.86671802 1.01011283 0.65709041 2.56652717 1.35373135 0.99331624 14
Si 1.7309973 0.93552678 3.00290567 1.52070264 -0.6898116 -0.03782332 14
Si 3.69924486 2.02143684 3.79215025 -0.10507899 0.82585879 -4.64978728 14
Si 1.77199778 3.16595894 -0.20410328 -0.10062211 0.49751227 -0.40839219 14
Si 3.69291123 4.21872785 0.58081764 -0.14566262 -2.02046983 2.01364033 14
Si 5.43158516 5.24222583 3.55223963 -0.55295107 -0.46856605 -0.22322887 14
Si 3.70954483 -0.10373896 -0.32018278 -0.43503009 -1.04666005 0.09086055 14
Si 5.51060432 0.97782479 0.4385173 0.27371672 0.54174037 2.0314193 14
Si 5.60476811 0.90295976 2.95886686 -0.87344725 -0.94246765 -1.12912241 14
Si 7.55223324 1.93814356 3.48292845 -0.7868786 1.26820917 0.54356496 14
Si 5.53122158 3.1664913 -0.27306662 1.22451491 0.45670072 -0.14791412 14
Si 7.59031712 4.26307454 0.47344947 -1.02122634 -0.08586861 -0.53735068 14
Si 7.45114295 4.2451492 2.80753236 -1.94262113 -1.36696252 -0.80428084 14
Si 9.20847674 5.18307912 3.5551755 2.59424435 1.57887274 0.5178671 14
Sb -0.01245356 -0.14369298 -0.08626592 -2.2161876 0.09818091 1.74723123 51
15
Lattice="7.6325442400935755 -0.16617091217165858 -0.19054206616674088 3.779568473249993 6.555902780359075 -0.11922985972258526 3.727168630249428 2.0671591169950854 6.152428843472094" Properties=species:S:1:pos:R:3:force:R:3:Z:I:1 pbc="T T T" config_type=Sb_vac energy=-72.97503176 virial="13.837849027613668 8.532731511026219 7.143661976249789 8.532731511026219 18.37325412091317 -1.1808884122011474 7.143661976249789 -1.1808884122011474 12.097601671683075"
Si 1.85282306 0.82466835 0.74546339 1.63771545 2.72974126 -0.26831523 14
Si 1.75454456 0.87572693 3.05371411 -0.38571597 0.22956447 0.11146923 14
Si 3.60133733 2.04942521 3.68264886 1.29137657 0.82502309 -2.15202221 14
Si 1.91900412 3.27500251 -0.20578734 -2.5313699 -1.71271841 0.16832364 14
Si 3.69537372 4.31311627 0.51428298 1.92498355 -5.62057033 3.17893411 14
Si 5.47165496 5.24578256 3.5786886 0.03278554 -1.28803452 0.00928992 14
Si 3.69110949 -0.15126998 -0.32331941 -0.26073606 -0.52386658 2.23267839 14
Si 5.56159386 0.95371929 0.49999882 -1.74301179 -0.72058218 1.85960899 14
Si 5.65577068 0.78488684 2.86888465 -1.84325107 -0.23700308 0.13747585 14
Si 7.45464398 1.87491799 3.64832475 0.9625441 0.78025285 -2.04037695 14
Si 5.67321369 3.03890598 -0.11007607 -1.10908697 2.14463095 -1.66874499 14
Si 7.47749694 4.2270519 0.50485654 1.95185682 -0.07899959 -0.08182034 14
Si 7.56203843 4.15079047 2.85544749 -2.75016527 -1.20413803 -0.77175969 14
Si 9.26166158 5.14860314 3.63233127 2.6433563 1.14296069 1.19192255 14
Sb -0.18842376 -0.16539654 -0.04241501 0.1787187 3.53373941 -1.90666327 51
15
Lattice="7.618395188933079 -0.14403450172221155 -0.18290662628123394 3.742330830190494 6.518857186351212 -0.142294082964206 3.70998833207705 2.086521972448423 6.2342085327937315" Properties=species:S:1:pos:R:3:force:R:3:Z:I:1 pbc="T T T" config_type=Sb_vac energy=-73.76972388 virial="20.21895626451499 5.993939212881597 3.4799653582941605 5.993939212881597 14.38656036454887 2.798560496012677 3.4799653582941605 2.798560496012677 6.351679440473861"
Si 1.67261887 0.9833655 3.01520463 1.72750701 -1.26338198 -1.06304516 14
Si 3.60195439 2.0617684 3.83459625 0.56756923 -0.27501881 -4.87174914 14
Si 1.88229702 3.25585408 -0.17149293 -2.38204563 -1.37945857 -0.94757972 14
Si 3.65624132 4.26694789 0.5367997 2.04183748 -2.28974119 2.17587159 14
Si 3.67461028 4.30388561 3.0184353 -3.32058646 -1.83741415 -1.52611469 14
Si 5.46618175 5.20916849 3.61421435 2.8301629 2.29677175 1.8684624 14
Si 3.76326311 -0.12650151 -0.33691163 -0.85353293 -0.07282995 0.01122942 14
Si 5.63928893 0.89132742 0.52692524 -3.34890829 0.50635851 2.76562824 14
Si 5.5929665 0.80220986 3.02196926 -1.71422394 -0.1316406 -0.83014323 14
Si 7.49478989 1.83736279 3.52468867 -0.56467814 1.27425569 1.44627141 14
Si 5.65087016 2.99152394 -0.18687097 -1.26306287 1.50746235 -1.05314892 14
Si 7.43644622 4.20212151 0.41289637 1.51880787 0.33950519 0.9991336 14
Si 7.36197611 4.06733706 2.90527736 0.0692014 0.09759861 -1.49137576 14
Si 9.26070115 5.11082052 3.66288094 0.65269343 0.21222536 0.26449013 14
Sb -0.15989537 -0.04833732 -0.1316386 4.03925895 1.01530778 2.25206983 51
15
Lattice="7.59458825507429 -0.14557626072576196 -0.18350204683607793 3.705115080295613 6.507015185372787 -0.10154732327953675 3.7491210314501497 2.0894183945483977 6.174220697158644" Properties=species:S:1:pos:R:3:force:R:3:Z:I:1 pbc="T T T" config_type=Sb_vac energy=-73.52826882 virial="23.702029025489345 4.310279683157246 4.015668068317022 4.310279683157246 12.282034259361767 4.4961241028155134 4.015668068317022 4.4961241028155134 10.33885975275834"
Si 1.75386364 0.94750877 0.58954225 3.80065972 2.07438436 2.21670619 14
Si 3.6812151 2.00896592 3.72317764 -0.77712709 -0.94661339 -3.40181881 14
Si 1.71859803 3.14665952 -0.25087317 0.62373775 -0.0099881 -0.0237898 14
Si 3.73951154 4.16603074 0.54959915 -2.18829398 -0.77274175 1.2758767 14
Si 3.50412442 4.14312611 2.9545509 0.63911091 0.28051435 -0.83309391 14
Si 5.48585663 5.15670666 3.58868683 0.43275542 0.68085274 0.02030967 14
Si 3.69943732 -0.14651172 -0.23220248 -2.15201932 -0.1450787 -1.65124026 14
Si 5.47465826 0.7872832 0.58235253 -1.11490228 3.15062441 1.98152343 14
Si 5.59958795 0.94338477 2.92244802 -0.63567582 -1.36667591 0.16383453 14
Si 7.44559304 2.02321783 3.54340867 1.46989181 -0.05108177 0.59676299 14
Si 5.52819642 3.10310936 -0.14832175 1.53359912 -1.1911957 -0.54958534 14
Si 7.50771985 4.22607388 0.37774628 -0.09643022 -0.93733004 1.50840333 14
Si 7.52519359 4.21540103 2.86913679 -1.76907567 -0.51353161 -1.65271147 14
Si 9.33092646 5.13918351 3.68658112 0.77094406 1.79553823 0.31148993 14
Sb -0.18458926 0.00468805 -0.12625212 -0.53717442 -2.04767712 0.03733282 51
15
Lattice="7.600789684956921 -0.17377837029452894 -0.13835791937428532 3.765083534199243 6.551297185866661 -0.16178002563217103 3.7013478812997387 2.066089436966618 6.154989543073889" Properties=species:S:1:pos:R:3:force:R:3:Z:I:1 pbc="T T T" config_type=Sb_vac energy=-74.81096853 virial="4.539096960081639 7.196632382333818 6.109041240082493 7.196632382333818 11.42470105654747 -2.7380335864431227 6.109041240082493 -2.7380335864431227 19.0890942194939"
Si 1.90003093 1.00706859 0.68356353 0.90840809 -0.00316196 -0.49196278 14
Si 1.8391269 0.85428334 2.9421018 -1.87397766 0.06609356 0.43899683 14
Si 3.53152686 1.9664844 3.79084964 2.11906333 0.59124006 -5.15837594 14
Si 1.87467328 3.11000163 -0.18182046 0.04392965 1.71242392 1.12653533 14
Si 3.54676509 4.12461829 2.94031325 -0.43329123 0.63284285 -0.63617827 14
Si 5.41892061 5.31408873 3.70904258 0.6301963 -1.38792333 -0.98697136 14
Si 3.70803095 -0.24735312 -0.15768583 -0.39821753 1.490002 -1.43732257 14
Si 5.47623985 0.90618669 0.65389236 0.32781887 0.62136114 0.3495203 14
Si 5.59423831 0.74650099 2.99645357 -0.92283035 1.59118406 -0.41080324 14
Si 7.49222449 1.9286243 3.5610759 0.42670125 -0.98056492 0.80132798 14
Si 5.63744951 3.05065737 -0.23633709 -0.06418801 0.7477718 0.19811544 14
Si 7.56615026 4.28386723 0.53047749 -0.03473657 -2.76982388 -0.37050476 14
Si 7.37299744 4.06838151 2.79558589 -0.74937028 1.28571952 0.65371544 14
Si 9.22472652 5.20365812 3.58580321 0.64416538 -1.59694895 0.48759579 14
Sb -0.09892535 -0.12810762 -0.16131169 -0.62367124 -2.00021587 5.4363118 51
16
Lattice="7.5770067193151815 -0.1531704550060778 -0.12990916231039784 3.7285361558812005 6.515448299499117 -0.19143797741434565 3.785774240486396 2.0793459555354996 6.174935578481938" Properties=species:S:1:pos:R:3:force:R:3:Z:I:1 pbc="T T T" config_type=Sb_vac energy=-81.08577832 virial="23.87691584651294 14.433219941428014 9.726709462706125 14.433219941428014 17.31850961251281 2.4524443927483905 9.726709462706125 2.4524443927483905 16.49290868268294"
Si 1.77874185 0.95333101 0.69190999 6.24716594 3.09919209 1.57332948 14
Si 1.83741987 0.95370949 3.03141992 -1.14133967 -0.42131732 -0.56802888 14
Si 3.57850381 2.08419416 3.79099274 1.51688786 0.81977724 -3.7356791 14
Si 1.84138515 3.17951181 -0.21694688 -2.20176711 -0.90459052 -0.45277936 14
Si 3.58749677 4.24516023 0.54447751 1.99254124 -2.56922372 0.91839108 14
Si 3.54121026 4.27910652 2.81147667 0.02592744 0.23567844 1.53359858 14
Si 5.51746598 5.33368088 3.62174453 0.38701345 -1.32277663 -0.22475947 14
Si 3.73054417 -0.24176329 -0.25746672 -1.57446992 -0.24987855 -0.45413561 14
Si 5.50617356 0.78448883 0.64373294 -0.85717976 1.36027232 0.15730128 14
Si 5.50758307 0.81358168 2.90956203 -0.89665739 0.97657 0.66829608 14
Si 7.44313979 1.82827651 3.52673803 0.40403283 1.41191289 0.70615697 14
Si 5.58902435 2.98431792 -0.1515937 -1.50637038 0.25321967 -0.77975906 14
Si 7.41895836 4.11362985 0.42771546 1.43903264 0.35583309 0.97268946 14
Si 7.51163907 4.1668405 2.8411835 -2.30016915 -1.26909231 -0.92623831 14
Si 9.20948237 5.27292829 3.6257698 1.96933074 -0.58698476 1.05072855 14
Sb -0.00745248 -0.05797997 -0.06560089 -3.50397875 -1.18859195 -0.43911169 51
15
Lattice="7.613231729984494 -0.10167473534696699 -0.11126188011105251 3.75701958468441 6.514797348653385 -0.13373484623663742 3.7187838543317433 2.112516698215225 6.228977208347524" Properties=species:S:1:pos:R:3:force:R:3:Z:I:1 pbc="T T T" config_type=Sb_vac energy=-74.85724545 virial="18.677065236744344 4.6363375345074935 4.714812481881934 4.6363375345074935 10.187797267871836 4.003522253083321 4.714812481881934 4.003522253083321 3.986734036099559"
Si 1.79786284 0.85879098 0.74163396 2.80340707 2.47741297 -1.21841719 14
Si 1.71996957 1.06498443 2.92964902 -0.30403585 -0.35014049 2.10605422 14
Si 3.66669141 1.9550214 3.80555947 0.42707539 0.87220437 -1.75475337 14
Si 1.86434183 3.15641957 -0.25918584 0.1669506 -0.12607105 0.72021697 14
Si 3.60499837 4.21901577 2.96332663 1.07664944 -0.97383902 -0.48688696 14
Si 5.5424767 5.35667 3.63182386 0.16770057 -0.18790095 -0.17708654 14
Si 3.70204411 -0.18977762 -0.18956391 -0.62911113 0.47157639 -0.3362916 14
Si 5.55007668 0.88100954 0.54472896 -1.92187902 2.77942272 2.15144499 14
Si 5.64278243 0.86894721 3.03289888 -1.90477399 -0.94820279 -1.38913518 14
Si 7.36301331 2.05525048 3.69239547 1.72141917 -0.10025476 0.4536655 14
Si 5.56950564 3.17185297 -0.05954565 -1.01418833 -0.35244944 -1.16215786 14
Si 7.54901426 4.20912169 0.42442914 0.57956009 -1.2204296 1.34715426 14
Si 7.52026828 4.18582457 2.93489676 -1.999525 0.35594106 -1.83862052 14
Si 9.36380588 5.13686741 3.59446159 0.95337797 1.44564714 2.14871843 14
Sb -0.15663559 -0.14830069 0.02493206 -0.12262697 -4.14291654 -0.56390515 51
15
Lattice="7.566539660859691 -0.1327228800114133 -0.1974243340468277 3.7759231559047084 6.603016480174795 -0.1861461419380934 3.7820646448067823 2.1114109877769596 6.224230479055265" Properties=species:S:1:pos:R:3:force:R:3:Z:I:1 pbc="T T T" config_type=Sb_vac energy=-75.33482481 virial="11.346679147009112 1.0038167209084496 2.1314252500810125 1.0038167209084496 12.328765023651721 -0.49538732371534866 2.1314252500810125 -0.49538732371534866 4.82166841309009"
Si 1.7590967 0.88577246 3.0961993 0.20183782 1.25255505 -1.04304096 14
Si 3.66908306 2.08994914 3.78188557 -0.24490646 -0.92141995 -2.29055626 14
Si 1.74914562 3.25912796 -0.24999229 -0.56381754 -1.27277937 -0.363436 14
Si 3.61941464 4.20483022 0.4987832 0.57795224 -1.43716638 1.32171156 14
Si 3.64983148 4.18236722 2.89482973 -0.51774151 1.54392559 -0.08472209 14
Si 5.54833046 5.40096033 3.62835297 0.15901343 -1.76109314 0.09332055 14
Si 3.6340183 -0.24622007 -0.25990766 -0.41934971 1.33992221 -0.46778255 14
Si 5.51176488 0.95930507 0.46427568 -2.60834572 0.22235171 1.84627314 14
Si 5.51186845 0.92733018 2.91000362 -0.22508688 -0.86309406 -0.4825232 14
Si 7.45904716 1.92402414 3.56734613 0.13108951 0.7031764 0.44231985 14
Si 5.53232226 3.09474278 -0.25176527 0.51607313 1.20958029 -1.15784 14
Si 7.52272786 4.27854996 0.42491857 -0.77131193 -0.93627605 -0.32779471 14
Si 7.46302535 4.20246566 2.71747047 -1.62166865 -0.85063557 0.59643398 14
Si 9.22139812 5.23620474 3.52589973 2.08855368 0.85386792 0.72130566 14
Sb -0.16292347 -0.09626097 -0.06132908 3.29770857 0.91708533 1.19633101 51
15
Lattice="7.6368405434500595 -0.12745517979359566 -0.16137980621604917 3.764598361430999 6.582925124692299 -0.1717716124839284 3.7720090139597375 2.054453013452087 6.194317286681156" Properties=species:S:1:pos:R:3:force:R:3:Z:I:1 pbc="T T T" config_type=Sb_vac energy=-74.04375445 virial="14.720814654011287 3.967195187766412 3.4377754178473467 3.967195187766412 12.984725757293566 1.1560474698070338 3.4377754178473467 1.1560474698070338 8.383000471321854"
Si 1.92087234 0.94787704 0.59184966 1.88113579 2.79591274 1.69043424 14
Si 1.81975868 0.87926565 3.0356771 0.113176 0.65947027 -0.84869797 14
Si 3.70836856 1.99464438 3.78424756 0.11277874 1.01487612 -3.68486283 14
Si 1.88224336 3.27290084 -0.29440812 -1.01648994 -0.77619116 0.7728791 14
Si 3.78166748 4.24956883 0.46910147 0.59340852 -2.44846456 2.04961313 14
Si 5.59905924 5.32638595 3.6095411 -1.06431232 -0.90595745 -0.3604162 14
Si 3.65012994 -0.18699386 -0.29358361 1.19425621 -0.08334409 -0.74655327 14
Si 5.58679676 0.89071591 0.57795463 -1.77662546 0.41198901 0.83365366 14
Si 5.55376868 0.81195582 2.94281105 0.53319495 0.90923392 -0.15926119 14
Si 7.57084925 1.96701784 3.5139189 -0.79048621 0.15552716 0.30155355 14
Si 5.71966499 3.08014583 -0.16529444 -1.75708953 -0.26926515 -1.7097468 14
Si 7.49521212 4.23532044 0.37633198 1.95702643 0.33298367 0.7634552 14
Si 7.42887001 4.25926989 2.76699304 0.17215047 -1.04290795 -0.5286601 14
Si 9.27197219 5.28381714 3.56788337 1.11638384 -0.78179116 1.05811707 14
Sb -0.04500215 -0.10128389 -0.08878909 -1.26850749 0.02792862 0.56849243 51
15
Lattice="7.651733100807603 -0.11437308918229598 -0.1673485834477196 3.7899958340064583 6.510233250512743 -0.11833634737450668 3.7130151461588605 2.085331576960859 6.194304511465232" Properties=species:S:1:pos:R:3:force:R:3:Z:I:1 pbc="T T T" config_type=Sb_vac energy=-73.71042785 virial="15.549543295510041 9.898354879100802 7.415338100534569 9.898354879100802 13.452437076591812 2.8655168107664695 7.415338100534569 2.8655168107664695 10.172258184255096"
Si 1.92608495 0.93400163 0.71944338 1.36893035 1.05975827 -1.20752699 14
Si 1.7799539 0.89012544 2.91235522 -0.57339741 0.27727839 2.46614289 14
Si 3.60485685 2.08452975 3.76494165 0.57853686 -0.28732063 -3.15334558 14
Si 1.88234162 3.14198233 -0.19222123 -2.43664419 -0.94933719 -0.78604267 14
Si 3.63419248 4.19717411 0.51705919 2.35081071 -2.67224006 1.89006213 14
Si 3.52785563 4.27276301 2.87241291 -1.15617904 -0.50106785 0.16839322 14
Si 5.41461081 5.1988428 3.63098391 1.95692395 0.34995823 0.11041899 14
Si 3.77163624 -0.21117305 -0.207216 -1.88461577 -0.38273553 -1.33857543 14
Si 5.48406814 0.81651762 0.54763287 0.68247667 2.54109272 2.36655503 14
Si 7.40249883 1.86003487 3.63051059 -0.12725764 0.05619581 -0.83875653 14
Si 5.72632941 3.09913079 -0.10143264 -2.28561537 -1.02082044 -1.68878137 14
Si 7.5429715 4.18150759 0.44936431 1.85053114 -0.40410791 1.44294397 14
Si 7.53367102 4.17393775 2.86965534 -2.40500326 -1.32422779 -0.71737974 14
Si 9.25181302 5.29020919 3.55500211 2.1196247 1.47331739 1.29792459 14
Sb -0.1361725 -0.1080289 -0.06767115 -0.0391217 1.7842566 -0.01203249 51
16
Lattice="7.633822826506678 -0.12769175100493085 -0.10899656400210411 3.774640208304485 6.561259700711994 -0.19072215799884143 3.7645037678467688 2.1316899468213055 6.153980909263106" Properties=species:S:1:pos:R:3:force:R:3:Z:I:1 pbc="T T T" config_type=Sb_vac energy=-81.40930885 virial="11.106281000691181 -0.814463357476833 -0.8239055475122291 -0.814463357476833 14.864230706489202 0.17882179476827367 -0.8239055475122291 0.17882179476827367 24.109682116999558"
Si 1.9037993 1.02125034 0.71006119 1.1091108 0.63629789 -1.33276303 14
Si 1.70614683 1.05273025 2.89899047 1.69511471 -1.43206198 2.15120003 14
Si 3.74830373 2.02924451 3.79302072 -0.33074921 0.11594627 -6.82738199 14
Si 1.74696005 3.18390167 -0.20114338 1.35434705 0.05651333 0.10992355 14
Si 3.79469529 4.26522105 0.45488769 -0.46729426 -4.28755118 2.5803092 14
Si 3.55092771 4.24096314 2.9568634 1.7209061 0.10275045 -0.91332689 14
Si 5.61081263 5.33410542 3.66527996 -0.67876677 0.09285081 -1.40584544 14
Si 3.68645442 -0.22926682 -0.25411968 -0.52224597 0.34550435 0.55988214 14
Si 5.53310798 0.85208409 0.50967406 -0.98108401 0.81191222 1.57676918 14
Si 5.61928686 0.82847616 2.90701482 -0.33096511 0.82364165 -0.40597831 14
Si 7.53750271 1.90385436 3.64241441 -0.95287355 1.60946449 -0.95806807 14
Si 5.71040978 3.02381461 -0.16432102 -0.08136974 1.22375568 -0.90738639 14
Si 7.63297473 4.25934738 0.50399338 -0.89347908 -0.68012178 -0.55004647 14
Si 7.53024913 4.22306373 2.73943296 -0.63381943 -0.60623815 1.78568414 14
Si 9.38668053 5.30198802 3.58188282 -0.21152133 -0.67596062 0.98860202 14
Sb -0.09970761 -0.14856067 -0.15909811 0.20468981 1.86329658 3.54842632 51
15
Lattice="7.595842339071511 -0.1378804220322892 -0.1916278868061955 3.7219563274092553 6.53838707053299 -0.13759818200946589 3.761749534039643 2.1394743919031014 6.220040839043135" Properties=species:S:1:pos:R:3:force:R:3:Z:I:1 pbc="T T T" config_type=Sb_vac energy=-75.12397467 virial="17.356177245092 8.830747923116423 5.980476077225862 8.830747923116423 10.531100317209878 2.023097231830583 5.980476077225862 2.023097231830583 5.875564312314476"
Si 1.82147963 0.98227654 0.63397696 2.06404954 0.82387115 0.65312016 14
Si 1.7607854 1.01760638 2.94825989 0.53643707 0.15631292 0.77134267 14
Si 1.73433161 3.1686534 -0.12593326 -0.92736375 -0.16442082 -1.39612816 14
Si 3.58329765 4.17811981 0.64702579 1.08823836 -1.77255389 0.5298556 14
Si 3.6896277 4.23331424 2.9007666 -1.64889865 -0.69666794 1.03293088 14
Si 5.48128246 5.33354995 3.61762777 1.69216184 0.24923277 0.65007658 14
Si 3.73377341 -0.14492215 -0.24893892 -2.21736501 -1.31370137 -1.25671153 14
Si 5.47149052 0.81146953 0.59000332 0.10908894 2.76622271 1.42508768 14
Si 5.55641809 0.94523725 2.88439364 -1.41964212 0.04726068 0.27094669 14
Si 7.41932228 1.98185952 3.54164562 1.05212014 0.80816747 0.55260605 14
Si 5.54121445 3.09995891 -0.16501046 -0.99116259 -0.71314887 -1.22966538 14
Si 7.41103772 4.16634858 0.47440784 0.861401 0.6030978 -0.59150907 14
Si 7.51511019 4.22082317 2.72983639 -1.32323602 -0.17519583 1.34079354 14
Si 9.29540929 5.33617774 3.57644693 1.20843136 -0.50420751 0.72726613 14
Sb -0.16872846 -0.12478673 0.01237099 -0.0842601 -0.11426926 -3.48001185 51
15
Lattice="7.582181734393132 -0.1699959735344779 -0.17242213579046323 3.754156836570037 6.533703884652843 -0.19546350342177932 3.6943962830706774 2.1065591848118776 6.205883903507713" Properties=species:S:1:pos:R:3:force:R:3:Z:I:1 pbc="T T T" config_type=Sb_vac energy=-74.52717471 virial="16.652994173935117 0.4863480198775746 0.6750760154560578 0.4863480198775746 10.608043120427507 1.5132902891938453 0.6750760154560578 1.5132902891938453 3.7736818724897288"
Si 1.90711248 1.01165067 0.61314442 2.80790839 1.25102209 1.15341628 14
Si 1.68761482 1.03135449 3.06940648 2.02015156 -1.82044713 -1.373745 14
Si 3.67198849 2.08916138 3.73166269 -0.92732849 -0.91210102 -0.46289547 14
Si 1.75301655 3.25425586 -0.28308572 -0.25693713 -0.5258349 1.40328008 14
Si 3.73462552 4.14777207 0.53987586 0.01230008 -2.69383076 1.15124442 14
Si 3.57806851 4.18172542 2.96427711 0.6749842 1.10586818 -1.07124388 14
Si 5.50469098 5.27116047 3.6843315 0.64910181 0.27537585 -1.55816861 14
Si 5.52594875 0.80822622 0.48288791 -3.2142199 0.60942682 1.49695706 14
Si 5.45417183 0.89388337 3.02424377 1.21257193 -1.03139132 -1.2873557 14
Si 7.49832892 1.84066512 3.57093676 -1.96969805 1.84419469 1.17335054 14
Si 5.62074503 2.98453724 -0.31598463 0.18573549 0.54263047 -0.03370744 14
Si 7.47354969 4.23850238 0.43072962 -0.05781915 0.4294074 -0.60026655 14
Si 7.43237118 4.07898946 2.73611941 -0.66233735 -0.16901467 0.68413052 14
Si 9.31055115 5.13977002 3.5303818 -0.59780327 0.72285969 0.37740837 14
Sb -0.06571334 -0.13275883 0.01689276 0.12338987 0.37183462 -1.05240462 51
15
Lattice="7.6186640691162495 -0.17792272084888802 -0.141893886572366 3.740541567751208 6.597538703597225 -0.15906000728619293 3.7607898451446515 2.0517027707031565 6.224485562729485" Properties=species:S:1:pos:R:3:force:R:3:Z:I:1 pbc="T T T" config_type=Sb_vac energy=-75.42656481 virial="5.388660234950508 4.039624675805495 2.5974530430241756 4.039624675805495 6.9325700849059215 0.16958074744582372 2.5974530430241756 0.16958074744582372 5.96838077979332"
Si 1.8021697 0.90856698 2.93677364 -0.12821142 -0.15300914 -0.2416253 14
Si 3.6815293 2.05722681 3.71353287 0.10035366 -0.57383147 -3.12909293 14
Si 1.9062669 3.31418371 -0.14006568 -1.49763173 -1.5582544 -0.65839294 14
Si 3.67049354 4.30253182 0.64075008 1.8197356 -1.38520042 0.23840928 14
Si 3.53092773 4.26611758 2.89923987 1.31120983 0.41166561 1.37905418 14
Si 5.58586962 5.33909203 3.76692515 -0.54242879 -0.18115356 -0.82968298 14
Si 3.61301802 -0.11782893 -0.24056497 0.11139259 -0.10739849 -0.24323241 14
Si 5.62515506 0.93829277 0.55369481 -1.82085664 -1.03738659 0.50195902 14
Si 5.56816461 0.72903415 2.88710563 0.20281419 1.94892489 0.09040798 14
Si 7.53743948 1.88655673 3.550713 -0.37104521 0.66384015 0.48098035 14
Si 5.65724971 3.0742874 -0.10684693 -0.37857616 1.57984359 -1.07318457 14
Si 7.60721408 4.20200779 0.39219998 -0.31223469 0.94348616 1.28025053 14
Si 7.482176 4.2545049 2.87966706 -0.27051888 -1.09559792 -0.83179061 14
Si 9.37963571 5.28469004 3.66281987 -0.26304324 -1.06032719 1.04358449 14
Sb -0.01445657 -0.07810897 -0.16187674 2.03904089 1.60439878 1.99235591 51
15