1
Lattice="20.0 0.0 0.0 0.0 20.0 0.0 0.0 0.0 20.0" Properties=species:S:1:pos:R:3:force:R:3 config_type=isolated_atom virial="-0.00000 -0.0 -0.0 -0.0 -0.000000 -0.0 -0.0 -0.0 -0.00000" energy=-0.000000 pbc="T T T"
Si      10.00000000      10.00000000      10.00000000       0.00000000       0.00000000       0.00000000
15
Lattice="7.56311613909787 -0.1390180185849784 -0.10303045410862402 3.769512877212481 6.575673506707571 -0.1796285627098901 3.728357788268693 2.1162331091207847 6.197754909408754" Properties=species:S:1:pos:R:3:force:R:3 config_type=Sb_vac energy=-4.444176349999992 virial="7.20570905901101 -3.1995378595048294 -2.550519351619122 -3.1995378595048294 5.519133578651225 1.0886331539122711 -2.550519351619122 1.0886331539122711 16.2619370289051" pbc="T T T"
Si       1.68248442       0.89963462       2.97878433      -0.20055456      -0.30346359      -0.55784398
Si       3.55687954       1.94531597       3.83400222      -0.04028159      -0.21922265      -5.50852628
Si       1.73731732       3.25463498      -0.18858053      -0.45101383      -0.53415501      -0.10452868
Si       3.64323202       4.17046607       0.48884146       0.08524995      -0.73488241       0.44812736
Si       3.66470477       4.16680672       2.99480108      -0.07694275       0.18279812      -0.16361416
Si       5.42308920       5.36195530       3.56462445       0.13805409       0.17920398       0.16380349
Si       3.66259193      -0.16326345      -0.16923490      -0.72874925      -0.00841224       0.10157201
Si       5.46471383       0.84780168       0.63892005      -2.51436613       1.18366181       0.97818021
Si       5.63040805       0.93351546       2.89901533       0.00206625       0.00921156       0.37435248
Si       7.38346314       1.94201653       3.55839470       0.19737863       0.06870324       0.15022884
Si       5.70066802       3.02978523      -0.11127266      -0.20386194       0.37872939      -0.08220827
Si       7.57994062       4.28647969       0.38355041       0.22679638       0.09849561       0.04667731
Si       7.50656211       4.20897563       2.83950529      -0.07735406      -0.00972698      -0.07690941
Si       9.29547624       5.15890593       3.60977090       0.03451836      -0.11575383       0.01125614
Sb      -0.18585601      -0.00031096      -0.14610667       3.60906045      -0.17518699       4.21943294
15
Lattice="7.660027668116348 -0.15172593260403555 -0.16564485309534685 3.7649717456913367 6.590586007944128 -0.12023144996983148 3.703148271533892 2.095353469663075 6.188963925794171" Properties=species:S:1:pos:R:3:force:R:3 config_type=Sb_vac energy=-4.675631100000004 virial="15.13262438128164 4.614825058865817 2.8723683587236044 4.614825058865817 14.222564764594262 0.38992397613552054 2.8723683587236044 0.38992397613552054 9.84883660492466" pbc="T T T"
Si       1.75827441       0.97359057       0.74893044       5.35185041       3.31357526       2.23617065
Si       1.69562418       0.94362794       3.07469628      -0.05610540      -0.03044434      -0.05672949
Si       3.71348560       2.05611357       3.72311619      -0.05217357      -0.16928309      -1.71129059
Si       1.87361788       3.32005313      -0.13308471      -0.64940024       0.03406259      -0.00719261
Si       3.79871986       4.28191407       0.61766048      -0.01816791      -4.09802569       1.12072651
Si       3.67419572       4.20431490       2.96893518       0.00825546       0.20268745       0.17280353
Si       5.55033320       5.22272536       3.72390005       0.27911207      -0.07250011       0.10079412
Si       3.80132027      -0.25348406      -0.34428340      -0.13211172      -0.51809751      -0.03945836
Si       5.57597546       0.90545454       0.50397321      -1.69134924       0.77253896       0.39918492
Si       5.62516335       0.81448141       2.85088608       0.02136280      -0.02494910       0.21882770
Si       7.48350676       1.96011257       3.67829432       0.05011472       0.24511326       0.11603536
Si       5.65200739       3.16175440      -0.18916104       0.58115163       0.33469818       0.07472634
Si       7.38239337       4.27770084       2.80204491      -0.11141877      -0.04916915      -0.34245987
Si       9.33434089       5.26714180       3.67296031      -0.20633016      -0.08631593       0.07576808
Sb      -0.01948462      -0.11562480       0.01408300      -3.37479008       0.14610925      -2.35790630
15
Lattice="7.5904530427186225 -0.10554825908451664 -0.1246916269774299 3.707285350370114 6.556292537663229 -0.17470791428732502 3.716724069176757 2.132430541436567 6.217451826653834" Properties=species:S:1:pos:R:3:force:R:3 config_type=Sb_vac energy=-4.8532310800000005 virial="10.297829804443108 3.0322288290456383 2.3527932737067814 3.0322288290456383 10.078534473623453 0.43617660063297325 2.3527932737067814 0.43617660063297325 14.231546122362284" pbc="T T T"
Si       1.84201921       0.89784043       0.73789888       3.47605606       1.96175982       1.57447407
Si       1.69944423       0.95172001       2.91839133       0.13542621       0.08688388       0.39837033
Si       3.64746865       2.10749402       3.81904034       0.05276704       0.02175974      -3.83890965
Si       1.73389043       3.13010905      -0.16695779       0.08375335       0.46089412      -0.15956855
Si       3.58042896       4.18297653       0.50662149       0.03806408      -2.99094854       0.96431602
Si       3.53186480       4.29479653       2.84507003       0.02912464       0.24874046       0.01777148
Si       5.46826074       5.32177125       3.61118847       0.03556724      -0.09829099      -0.02917008
Si       3.74313988      -0.13786955      -0.17376591       0.35294971      -0.18547853      -0.16146668
Si       5.47101152       1.00043766       0.57271786      -0.92923495       0.98229586       0.53385466
Si       5.64104826       0.86123949       2.87698433       0.06913000      -0.12087374      -0.01093638
Si       7.49260543       1.93883800       3.69244049      -0.08353734       0.05305420      -0.03765450
Si       7.50678803       4.24250170       0.40129309      -0.41798539      -0.25835265      -0.10143681
Si       7.46982188       4.24475026       2.88044248       0.19034150       0.09146407      -0.13714635
Si       9.17748417       5.29267678       3.68930617      -0.01367954       0.04698336       0.40236898
Sb      -0.04088901      -0.11599189      -0.06677213      -3.01874262      -0.29989106       0.58513345
15
Lattice="7.651599031149428 -0.183778260309801 -0.17664566482800254 3.7289333768893482 6.585919206571396 -0.10302407205165533 3.7567852226207976 2.124456961483055 6.23225983224308" Properties=species:S:1:pos:R:3:force:R:3 config_type=Sb_vac energy=-4.393489719999991 virial="8.871373057054248 4.406996683137708 2.386518254836286 4.406996683137708 8.365035684255002 0.14215244794090465 2.386518254836286 0.14215244794090465 14.62298349473102" pbc="T T T"
Si       1.81550428       0.88776682       0.69447797       3.39020805       1.96565067       1.14433614
Si       1.79063448       0.87603196       3.00323167      -0.08471595      -0.04865614       0.03360051
Si       3.57911000       1.97614992       3.85629223       0.01467009      -0.20876541      -4.55679320
Si       1.83238389       3.25349789      -0.10303162       0.14567566      -0.13064335       0.13941942
Si       3.76728257       4.31630501       0.68529213      -0.17065974      -1.71683475       0.54070366
Si       3.65883051       4.26186352       3.06715886       0.01436014       0.08285485      -0.16909286
Si       5.48490289       5.24413937       3.67799071       0.06729234      -0.03918299       0.03944062
Si       3.65384095      -0.09459839      -0.19252759       0.59879229       0.02230691       0.08822307
Si       5.58799416       0.95371595       2.94266986       0.24441018      -0.18195817      -0.56699338
Si       7.60224729       1.90456232       3.61378990      -0.22715662       0.03923298       0.10305230
Si       5.64429089       2.99307513      -0.14630267       0.17320174      -0.39304226       0.02862607
Si       7.59643094       4.25034871       0.54880776      -0.16167643       0.11351793      -0.01675438
Si       7.52559039       4.10460300       2.86494758       0.07673785      -0.03433045      -0.02931149
Si       9.36232328       5.20772363       3.74933893      -0.13247793       0.14764596       0.12372038
Sb      -0.12392301      -0.01493505      -0.12432522      -3.94866168       0.38220421       3.09782311
15
Lattice="7.618054355046248 -0.19979766969965929 -0.11753904994320069 3.780453606668893 6.598313398767712 -0.16141200129659733 3.698139785625701 2.136856874575145 6.196793354335996" Properties=species:S:1:pos:R:3:force:R:3 config_type=Sb_vac energy=-4.946671860000009 virial="11.459116404646807 2.07603088566121 2.541764002627121 2.07603088566121 10.165081156287425 1.0998142168627103 2.541764002627121 1.0998142168627103 11.011375398439334" pbc="T T T"
Si       1.89924125       0.93954331       0.60879344       3.64583206       2.17660550       1.40346267
Si       1.73190560       0.98096027       3.09769823      -0.14593682      -0.02692446      -0.02803158
Si       3.60327925       1.96276297       3.78777082      -0.09119979      -0.12219478      -2.73266416
Si       1.80344353       3.29779528      -0.13260051       0.04863147       0.29595686      -0.12348854
Si       3.80244308       4.26258024       0.61071487       0.32971466      -2.74036814       0.92327726
Si       3.51613146       4.19651901       3.00074218      -0.02909733       0.46593754      -0.28412070
Si       5.44888967       5.34880068       3.71557351       0.06010456      -0.08251940       0.03100838
Si       3.67345632      -0.17295863      -0.31750367       0.36977659      -0.14471586      -0.18070389
Si       5.45412460       0.79747680       0.61286339      -1.45943592       1.02359791       0.57336749
Si       5.51372495       0.85377305       3.00729826       0.28560820      -0.12478041      -0.20808812
Si       7.47157475       1.90561310       3.59882363      -0.00347637       0.09448320       0.04600466
Si       7.52577118       4.30005170       0.41061753      -0.36092364      -0.13633632      -0.09028741
Si       7.36533030       4.13141632       2.88204535       0.12872109       0.06832548      -0.10813026
Si       9.22885308       5.16131591       3.73668234      -0.02092404      -0.12316266       0.40724157
Sb      -0.05411198      -0.06187873      -0.02882797      -2.75739474      -0.62390448       0.37115262
15
Lattice="7.631608240042875 -0.12744168487591934 -0.1778936135148821 3.695399151291327 6.585476946106719 -0.15085516372516206 3.761427928120196 2.045840752657962 6.1475815167265875" Properties=species:S:1:pos:R:3:force:R:3 config_type=Sb_vac energy=-4.784501570000003 virial="10.554534564572384 2.401270215404859 1.3696299606129618 2.401270215404859 10.101093655855955 -1.311367212342551 1.3696299606129618 -1.311367212342551 14.941677204461389" pbc="T T T"
Si       1.86671802       1.01011283       0.65709041       2.73773147       1.71105124       1.26094156
Si       1.73099730       0.93552678       3.00290567       0.15314047       0.13198309       0.43492901
Si       3.69924486       2.02143684       3.79215025      -0.11307900       0.30707361      -5.04481753
Si       1.77199778       3.16595894      -0.20410328       0.04330536       0.39071666      -0.04462886
Si       3.69291123       4.21872785       0.58081764      -0.02466901      -2.85648515       1.38845898
Si       5.43158516       5.24222583       3.55223963      -0.23759515      -0.26880691      -0.25696419
Si       3.70954483      -0.10373896      -0.32018278       0.11248515      -0.04342071      -0.03965290
Si       5.51060432       0.97782479       0.43851730      -0.64280107       0.32289387       0.50626399
Si       5.60476811       0.90295976       2.95886686      -0.08881756       0.03857611       0.23445241
Si       7.55223324       1.93814356       3.48292845      -0.00047027       0.07125725      -0.09864164
Si       5.53122158       3.16649130      -0.27306662       0.01089403       0.33623445      -0.12834035
Si       7.59031712       4.26307454       0.47344947      -0.00841018      -0.07998021       0.10548584
Si       7.45114295       4.24514920       2.80753236       0.07424248       0.19341088       0.16866107
Si       9.20847674       5.18307912       3.55517550       0.20023086      -0.35268509      -0.23337861
Sb      -0.01245356      -0.14369298      -0.08626592      -2.21618760       0.09818091       1.74723123
15
Lattice="7.6325442400935755 -0.16617091217165858 -0.19054206616674088 3.779568473249993 6.555902780359075 -0.11922985972258526 3.727168630249428 2.0671591169950854 6.152428843472094" Properties=species:S:1:pos:R:3:force:R:3 config_type=Sb_vac energy=-4.279984449999986 virial="11.215179259484236 -0.041545068081665804 -0.11071990326532344 -0.041545068081665804 17.14134970967848 -2.9980761446291737 -0.11071990326532344 -2.9980761446291737 10.497650033092729" pbc="T T T"
Si       1.85282306       0.82466835       0.74546339       2.12133615       1.30450524       0.81172793
Si       1.75454456       0.87572693       3.05371411       0.09823666       0.05910215       0.28931364
Si       3.60133733       2.04942521       3.68264886      -0.10633779       0.40845545      -2.47633848
Si       1.91900412       3.27500251      -0.20578734      -0.07844377       0.05170396       0.01869573
Si       3.69537372       4.31311627       0.51428298      -0.02201904      -6.71413319       2.38319621
Si       5.47165496       5.24578256       3.57868860      -0.22230655      -0.22113643      -0.27199942
Si       3.69110949      -0.15126998      -0.32331941      -0.27518885      -0.09798568      -0.08446112
Si       5.56159386       0.95371929       0.49999882      -1.95052383       1.18477208       0.87865202
Si       5.65577068       0.78488684       2.86888465      -0.12483986       0.05818635       0.51940501
Si       7.45464398       1.87491799       3.64832475       0.07525423       0.06963860      -0.08319179
Si       5.67321369       3.03890598      -0.11007607       0.00687767       0.61574468      -0.15214055
Si       7.47749694       4.22705190       0.50485654       0.07286827      -0.03480431       0.12300165
Si       7.56203843       4.15079047       2.85544749       0.02420165       0.17461644       0.16688904
Si       9.26166158       5.14860314       3.63233127       0.20216638      -0.39240476      -0.21608660
Sb      -0.18842376      -0.16539654      -0.04241501       0.17871870       3.53373941      -1.90666327
15
Lattice="7.618395188933079 -0.14403450172221155 -0.18290662628123394 3.742330830190494 6.518857186351212 -0.142294082964206 3.70998833207705 2.086521972448423 6.2342085327937315" Properties=species:S:1:pos:R:3:force:R:3 config_type=Sb_vac energy=-4.107092000000009 virial="8.138287846999964 -4.004053411803847 -3.528910765932435 -4.004053411803847 10.208735575444004 -0.9009713927540499 -3.528910765932435 -0.9009713927540499 14.596370529297001" pbc="T T T"
Si       1.67261887       0.98336550       3.01520463      -0.43410396      -0.12734260      -0.64211214
Si       3.60195439       2.06176840       3.83459625       0.10515201       0.05652726      -4.47304491
Si       1.88229702       3.25585408      -0.17149293      -0.25207838      -0.73460514      -0.00475792
Si       3.65624132       4.26694789       0.53679970       0.08598044      -2.89798089       1.09417279
Si       3.67461028       4.30388561       3.01843530       0.00170255       0.15233745       0.00935316
Si       5.46618175       5.20916849       3.61421435       0.16183029       0.17881019       0.13113280
Si       3.76326311      -0.12650151      -0.33691163      -0.82388918       0.13543821      -0.02776180
Si       5.63928893       0.89132742       0.52692524      -3.35563684       1.89819898       1.51731092
Si       5.59296650       0.80220986       3.02196926       0.05882993      -0.00228285       0.10420153
Si       7.49478989       1.83736279       3.52468867       0.35751737       0.02467164       0.13782229
Si       5.65087016       2.99152394      -0.18687097      -0.05046363       0.28317832      -0.10107332
Si       7.43644622       4.20212151       0.41289637       0.22832547       0.16138631       0.04810427
Si       7.36197611       4.06733706       2.90527736      -0.07716745      -0.05262222      -0.02225914
Si       9.26070115       5.11082052       3.66288094      -0.04525758      -0.09102243      -0.02315836
Sb      -0.15989537      -0.04833732      -0.13163860       4.03925896       1.01530777       2.25206983
15
Lattice="7.59458825507429 -0.14557626072576196 -0.18350204683607793 3.705115080295613 6.507015185372787 -0.10154732327953675 3.7491210314501497 2.0894183945483977 6.174220697158644" Properties=species:S:1:pos:R:3:force:R:3 config_type=Sb_vac energy=-4.330155909999988 virial="15.525174302054609 0.3651739279504742 0.30948797338260636 0.3651739279504742 10.110036498322643 2.5217022176320345 0.30948797338260636 2.5217022176320345 11.935136992323915" pbc="T T T"
Si       1.75386364       0.94750877       0.58954225       4.25983674       2.54316394       1.82030640
Si       3.68121510       2.00896592       3.72317764      -0.27094692      -0.05356116      -4.14387257
Si       1.71859803       3.14665952      -0.25087317      -0.21564828      -0.26418035       0.04879265
Si       3.73951154       4.16603074       0.54959915      -0.06395137      -1.68729913       0.48753072
Si       3.50412442       4.14312611       2.95455090      -0.13904194      -0.03780869       0.33794170
Si       5.48585663       5.15670666       3.58868683       0.17666061       0.36268569      -0.19529108
Si       3.69943732      -0.14651172      -0.23220248      -0.59616030      -0.25908437      -0.14062488
Si       5.47465826       0.78728320       0.58235253      -3.00212562       1.52019865       1.35422449
Si       5.59958795       0.94338477       2.92244802       0.08131752       0.00283911       0.56217725
Si       7.44559304       2.02321783       3.54340867       0.42348908      -0.04909870      -0.22648127
Si       5.52819642       3.10310936      -0.14832175       0.01158915       0.16186509      -0.08898524
Si       7.50771985       4.22607388       0.37774628       0.11156215       0.01149596       0.08707183
Si       7.52519359       4.21540103       2.86913679      -0.22602342      -0.09894564       0.15721628
Si       9.33092646       5.13918351       3.68658112      -0.01338299      -0.10459329      -0.09733912
Sb      -0.18458926       0.00468805      -0.12625212      -0.53717441      -2.04767712       0.03733282
15
Lattice="7.600789684956921 -0.17377837029452894 -0.13835791937428532 3.765083534199243 6.551297185866661 -0.16178002563217103 3.7013478812997387 2.066089436966618 6.154989543073889" Properties=species:S:1:pos:R:3:force:R:3 config_type=Sb_vac energy=-4.510931889999995 virial="7.096312722976106 0.7959195525374501 0.7048617145514902 0.7959195525374501 2.380066707550533 0.3060790655969696 0.7048617145514902 0.3060790655969696 17.532711385528238" pbc="T T T"
Si       1.90003093       1.00706859       0.68356353       1.07624108       0.68405405       0.36724538
Si       1.83912690       0.85428334       2.94210180      -0.05285563      -0.02699606       0.06396623
Si       3.53152686       1.96648440       3.79084964      -0.11497714       0.15736603      -5.76752570
Si       1.87467328       3.11000163      -0.18182046       0.29703741       0.45702080       0.03606000
Si       3.54676509       4.12461829       2.94031325      -0.00276017       0.27856010      -0.53368914
Si       5.41892061       5.31408873       3.70904258      -0.04812751      -0.14414613       0.09546789
Si       3.70803095      -0.24735312      -0.15768583      -0.00462923      -0.00916254       0.02353408
Si       5.47623985       0.90618669       0.65389236      -0.29128081       0.24502340       0.15138000
Si       5.59423831       0.74650099       2.99645357       0.03234744      -0.04228569       0.05769560
Si       7.49222449       1.92862430       3.56107590      -0.02066848       0.08733195       0.00514138
Si       5.63744951       3.05065737      -0.23633709      -0.27041703       0.47744162      -0.02565588
Si       7.56615026       4.28386723       0.53047749      -0.01744197      -0.09253319       0.01619834
Si       7.37299744       4.06838151       2.79558589      -0.00031986       0.05046955      -0.03858717
Si       9.22472652       5.20365812       3.58580321       0.04152315      -0.12192801       0.11245718
Sb      -0.09892535      -0.12810762      -0.16131169      -0.62367124      -2.00021587       5.43631180
16
Lattice="7.5770067193151815 -0.1531704550060778 -0.12990916231039784 3.7285361558812005 6.515448299499117 -0.19143797741434565 3.785774240486396 2.0793459555354996 6.174935578481938" Properties=species:S:1:pos:R:3:force:R:3 config_type=Sb_vac energy=-3.8844358700000043 virial="15.64157973976341 4.298333830712815 3.4187204016224024 4.298333830712815 12.599315891746397 -0.44788538598809735 3.4187204016224024 -0.44788538598809735 14.110713404142484" pbc="T T T"
Si       1.77874185       0.95333101       0.69190999       5.80898936       3.39573479       2.45743007
Si       1.83741987       0.95370949       3.03141992      -0.20978881      -0.19200410       0.08704478
Si       3.57850381       2.08419416       3.79099274      -0.19215268       0.08717682      -4.02163137
Si       1.84138515       3.17951181      -0.21694688      -0.17512331      -0.06718931      -0.15535763
Si       3.58749677       4.24516023       0.54447751      -0.01363297      -3.27974572       1.07775345
Si       3.54121026       4.27910652       2.81147667      -0.02702710       0.13146059       0.21345242
Si       5.51746598       5.33368088       3.62174453       0.11332563       0.07093866       0.01185241
Si       3.73054417      -0.24176329      -0.25746672      -0.12978834      -0.15865207      -0.14090075
Si       5.50617356       0.78448883       0.64373294      -1.72623802       1.06094147       0.85676942
Si       5.50758307       0.81358168       2.90956203       0.08445379      -0.11067811       0.12422795
Si       7.44313979       1.82827651       3.52673803       0.02875748       0.07632364      -0.02814170
Si       5.58902435       2.98431792      -0.15159370      -0.00736196       0.13360265      -0.09907918
Si       7.41895836       4.11362985       0.42771546       0.01333526      -0.00010077       0.10609052
Si       7.51163907       4.16684050       2.84118350       0.01447263      -0.00516003      -0.00469383
Si       9.20948237       5.27292829       3.62576980      -0.07824220       0.04594341      -0.04570485
Sb      -0.00745248      -0.05797997      -0.06560089      -3.50397875      -1.18859195      -0.43911169
15
Lattice="7.613231729984494 -0.10167473534696699 -0.11126188011105251 3.75701958468441 6.514797348653385 -0.13373484623663742 3.7187838543317433 2.112516698215225 6.228977208347524" Properties=species:S:1:pos:R:3:force:R:3 config_type=Sb_vac energy=-4.853251939999993 virial="14.51897964415263 -0.88500851670182 0.031185310507408026 -0.88500851670182 5.096415913868965 3.118313226770707 0.031185310507408026 3.118313226770707 8.471831718147515" pbc="T T T"
Si       1.79786284       0.85879098       0.74163396       2.82421006       1.44497751       1.21816700
Si       1.71996957       1.06498443       2.92964902       0.13789108       0.11978532       0.09692426
Si       3.66669141       1.95502140       3.80555947       0.10796070      -0.10395050      -1.57172480
Si       1.86434183       3.15641957      -0.25918584       0.39443250       0.62965474      -0.08770575
Si       3.60499837       4.21901577       2.96332663      -0.02945773       0.33903393      -0.46277524
Si       5.54247670       5.35667000       3.63182386      -0.09003156      -0.24183474       0.16635052
Si       3.70204411      -0.18977762      -0.18956391      -0.01656607      -0.01101780      -0.03953278
Si       5.55007668       0.88100954       0.54472896      -2.81772201       1.75845495       1.04893314
Si       5.64278243       0.86894721       3.03289888      -0.08860817       0.06267584       0.06684870
Si       7.36301331       2.05525048       3.69239547      -0.01808320       0.07260962      -0.05381918
Si       5.56950564       3.17185297      -0.05954565      -0.34955379       0.47254971       0.07440890
Si       7.54901426       4.20912169       0.42442914      -0.05346586      -0.27626047       0.02263036
Si       7.52026828       4.18582457       2.93489676       0.01595092       0.07721028      -0.03601750
Si       9.36380588       5.13686741       3.59446159       0.10567011      -0.20097185       0.12121753
Sb      -0.15663559      -0.14830069       0.02493206      -0.12262697      -4.14291654      -0.56390515
15
Lattice="7.566539660859691 -0.1327228800114133 -0.1974243340468277 3.7759231559047084 6.603016480174795 -0.1861461419380934 3.7820646448067823 2.1114109877769596 6.224230479055265" Properties=species:S:1:pos:R:3:force:R:3 config_type=Sb_vac energy=-5.02927677000001 virial="6.354254227328165 -2.6576579744621354 -2.4569383243287954 -2.6576579744621354 8.024427815385822 -0.14861611489343807 -2.4569383243287954 -0.14861611489343807 9.056623109914021" pbc="T T T"
Si       1.75909670       0.88577246       3.09619930      -0.44126357      -0.25731051      -0.64178717
Si       3.66908306       2.08994914       3.78188557       0.04583182      -0.07096057      -2.43933886
Si       1.74914562       3.25912796      -0.24999229      -0.43725771      -0.73895027      -0.00352917
Si       3.61941464       4.20483022       0.49878320      -0.05950390      -1.72566791       0.55786471
Si       3.64983148       4.18236722       2.89482973      -0.04727848       0.15520345       0.09511453
Si       5.54833046       5.40096033       3.62835297       0.20878582       0.26183740       0.15915253
Si       3.63401830      -0.24622007      -0.25990766      -0.71787390       0.06309444       0.05091768
Si       5.51176488       0.95930507       0.46427568      -2.32931881       1.27670119       0.98134000
Si       5.51186845       0.92733018       2.91000362       0.00980677      -0.06168137       0.04439483
Si       7.45904716       1.92402414       3.56734613       0.33060893       0.03652921       0.16268600
Si       5.53232226       3.09474278      -0.25176527       0.01001216       0.08706038      -0.11012748
Si       7.52272786       4.27854996       0.42491857       0.28533055       0.15277473       0.00372928
Si       7.46302535       4.20246566       2.71747047      -0.10758988      -0.04293412      -0.05210417
Si       9.22139812       5.23620474       3.52589973      -0.04799840      -0.05278138      -0.00464368
Sb      -0.16292347      -0.09626097      -0.06132908       3.29770859       0.91708533       1.19633098
15
Lattice="7.6368405434500595 -0.12745517979359566 -0.16137980621604917 3.764598361430999 6.582925124692299 -0.1717716124839284 3.7720090139597375 2.054453013452087 6.194317286681156" Properties=species:S:1:pos:R:3:force:R:3 config_type=Sb_vac energy=-4.648812929999991 virial="12.182797596847461 1.1754148526840376 1.0768441168424476 1.1754148526840376 10.905341418209932 -1.3352380031040008 1.0768441168424476 -1.3352380031040008 12.758709063816084" pbc="T T T"
Si       1.92087234       0.94787704       0.59184966       2.94072599       1.76442520       1.22454570
Si       1.81975868       0.87926565       3.03567710       0.12745420       0.04881484       0.42920587
Si       3.70836856       1.99464438       3.78424756      -0.26732354       0.35270987      -4.25420140
Si       1.88224336       3.27290084      -0.29440812      -0.00350366       0.28780867      -0.07472814
Si       3.78166748       4.24956883       0.46910147      -0.05019048      -3.42989948       1.41717911
Si       5.59905924       5.32638595       3.60954110      -0.21103687      -0.23680528      -0.20856234
Si       3.65012994      -0.18699386      -0.29358361       0.08761476      -0.14752964      -0.08733431
Si       5.58679676       0.89071591       0.57795463      -1.60134435       0.95737076       0.72595116
Si       5.55376868       0.81195582       2.94281105       0.01695190      -0.01679174       0.44406339
Si       7.57084925       1.96701784       3.51391890       0.04101668       0.07324012      -0.09259455
Si       5.71966499       3.08014583      -0.16529444      -0.03709178       0.48338176      -0.06107700
Si       7.49521212       4.23532044       0.37633198       0.01627475      -0.05494280       0.09645328
Si       7.42887001       4.25926989       2.76699304      -0.02188487       0.20105379       0.13123562
Si       9.27197219       5.28381714       3.56788337       0.23084475      -0.31076470      -0.25862880
Sb      -0.04500215      -0.10128389      -0.08878909      -1.26850749       0.02792862       0.56849243
15
Lattice="7.651733100807603 -0.11437308918229598 -0.1673485834477196 3.7899958340064583 6.510233250512743 -0.11833634737450668 3.7130151461588605 2.085331576960859 6.194304511465232" Properties=species:S:1:pos:R:3:force:R:3 config_type=Sb_vac energy=-4.955890320000009 virial="9.17833971227607 0.4938595022696468 -0.40714333274668224 0.4938595022696468 13.286036744486504 -0.8591600218745694 -0.40714333274668224 -0.8591600218745694 11.132370795399744" pbc="T T T"
Si       1.92608495       0.93400163       0.71944338       1.42967820       0.85038065       0.68299511
Si       1.77995390       0.89012544       2.91235522       0.26729780       0.09140990       0.48086000
Si       3.60485685       2.08452975       3.76494165       0.22651066       0.06979133      -3.51705160
Si       1.88234162       3.14198233      -0.19222123      -0.08167734      -0.04004296      -0.03365497
Si       3.63419248       4.19717411       0.51705919       0.06412957      -3.74409996       1.10240196