1
Lattice="20.0 0.0 0.0 0.0 20.0 0.0 0.0 0.0 20.0" Properties=species:S:1:pos:R:3:force:R:3:Z:I:1 pbc="T T T" config_type=isolated_atom Energy=-0.0563881 virial="0.012863850172591408 0.0 -0.0 0.0 0.012863850172591408 -0.0 -0.0 -0.0 0.012863850172591408"
Si 10.0 10.0 10.0 0.0 0.0 0.0 14
15
Lattice="7.56311613909787 -0.1390180185849784 -0.10303045410862402 3.769512877212481 6.575673506707571 -0.1796285627098901 3.728357788268693 2.1162331091207847 6.197754909408754" Properties=species:S:1:pos:R:3:force:R:3:Z:I:1 pbc="T T T" config_type=Bi_vac Energy=-72.63459494 virial="22.89379509601101 3.541316748895376 3.785675062435861 3.541316748895376 12.812789745558097 5.655477791247171 3.785675062435861 5.655477791247171 14.639130863722405"
Si 1.68248442 0.89963462 2.97878433 0.12296451 0.45784415 -1.02922064 14
Si 3.55687954 1.94531597 3.83400222 0.93410798 -0.35804505 -7.35481989 14
Si 1.73731732 3.25463498 -0.18858053 0.44073795 -1.83755233 -1.50800239 14
Si 3.64323202 4.17046607 0.48884146 1.33913785 -1.34376038 1.83986183 14
Si 3.66470477 4.16680672 2.99480108 -1.53649782 -0.70768566 -1.49091901 14
Si 5.4230892 5.3619553 3.56462445 2.07045099 -0.50079841 1.20865717 14
Si 3.66259193 -0.16326345 -0.1692349 -1.67641816 0.52295922 -1.08523573 14
Si 5.46471383 0.84780168 0.63892005 -2.71400421 2.19286305 1.23221347 14
Si 5.63040805 0.93351546 2.89901533 -3.09842147 -2.12039131 0.86943261 14
Si 7.38346314 1.94201653 3.5583947 2.2480364 1.7462228 1.64374408 14
Si 5.70066802 3.02978523 -0.11127266 -1.11157535 0.79906506 -1.31407169 14
Si 7.57994062 4.28647969 0.38355041 -1.14384106 -0.04994731 1.82959312 14
Si 7.50656211 4.20897563 2.83950529 -2.40591944 -0.59413776 -1.11043199 14
Si 9.29547624 5.15890593 3.6097709 1.96545295 1.60780209 1.24472596 14
Bi -0.18585601 -0.00031096 -0.14610667 4.56578887 0.18556183 5.02447311 83
15
Lattice="7.660027668116348 -0.15172593260403555 -0.16564485309534685 3.7649717456913367 6.590586007944128 -0.12023144996983148 3.703148271533892 2.095353469663075 6.188963925794171" Properties=species:S:1:pos:R:3:force:R:3:Z:I:1 pbc="T T T" config_type=Bi_vac Energy=-71.87192461 virial="17.13156561673652 8.598485189777426 5.773662307487294 8.598485189777426 12.38703285744253 1.0331693510983273 5.773662307487294 1.0331693510983273 13.876450224777765"
Si 1.75827441 0.97359057 0.74893044 7.15916948 4.19324222 1.49209565 14
Si 1.69562418 0.94362794 3.07469628 0.5848745 -0.4281548 0.2899012 14
Si 3.7134856 2.05611357 3.72311619 -0.03929599 -1.25034287 -2.51180872 14
Si 1.87361788 3.32005313 -0.13308471 -1.26536674 -0.82997633 0.16247381 14
Si 3.79871986 4.28191407 0.61766048 0.02271509 -4.72953873 1.77936998 14
Si 3.67419572 4.2043149 2.96893518 -1.18179005 0.84351435 0.02993913 14
Si 5.5503332 5.22272536 3.72390005 0.09418173 1.41636123 0.5096453 14
Si 3.80132027 -0.25348406 -0.3442834 -1.1390607 -0.53231422 2.55797941 14
Si 5.57597546 0.90545454 0.50397321 -1.90624275 1.36923733 0.89131238 14
Si 5.62516335 0.81448141 2.85088608 -0.44294547 0.47532177 0.44604747 14
Si 7.48350676 1.96011257 3.67829432 -0.17173243 0.98384723 -2.14767039 14
Si 5.65200739 3.1617544 -0.18916104 1.0449943 0.28341864 0.46537878 14
Si 7.38239337 4.27770084 2.80204491 0.69392553 -1.35548426 -0.65882472 14
Si 9.33434089 5.2671418 3.67296031 0.4352398 -0.5379797 -0.70134676 14
Bi -0.01948462 -0.1156248 0.014083 -3.88866632 0.09884813 -2.60449251 83
15
Lattice="7.5904530427186225 -0.10554825908451664 -0.1246916269774299 3.707285350370114 6.556292537663229 -0.17470791428732502 3.716724069176757 2.132430541436567 6.217451826653834" Properties=species:S:1:pos:R:3:force:R:3:Z:I:1 pbc="T T T" config_type=Bi_vac Energy=-72.20946298 virial="19.617334392759012 9.254154964419039 6.410007890561524 9.254154964419039 13.681014402655888 2.401107233607 6.410007890561524 2.401107233607 14.38421956936071"
Si 1.84201921 0.89784043 0.73789888 4.31302169 2.98964204 -0.21125437 14
Si 1.69944423 0.95172001 2.91839133 1.22133907 0.01874905 2.57389691 14
Si 3.64746865 2.10749402 3.81904034 0.32962742 -0.34113292 -5.73112593 14
Si 1.73389043 3.13010905 -0.16695779 -0.52447185 -0.5346583 -1.10355439 14
Si 3.58042896 4.18297653 0.50662149 1.34681244 -3.37359469 1.40339259 14
Si 3.5318648 4.29479653 2.84507003 -0.44301392 -0.14958839 0.64442372 14
Si 5.46826074 5.32177125 3.61118847 0.25249499 -0.29428681 0.38988722 14
Si 3.74313988 -0.13786955 -0.17376591 -0.79658062 -0.78726123 -0.6073682 14
Si 5.47101152 1.00043766 0.57271786 -0.04009218 2.47466247 0.79292254 14
Si 5.64104826 0.86123949 2.87698433 -1.40965753 0.22127733 0.69608483 14
Si 7.49260543 1.938838 3.69244049 -0.4535311 1.22662764 -0.25750788 14
Si 7.50678803 4.2425017 0.40129309 -0.89603934 -0.65084829 0.96504577 14
Si 7.46982188 4.24475026 2.88044248 -1.92555183 -1.43052544 -1.22177006 14
Si 9.17748417 5.29267678 3.68930617 2.40009038 0.91409457 0.96336119 14
Bi -0.04088901 -0.11599189 -0.06677213 -3.37444762 -0.28315703 0.70356605 83
15
Lattice="7.651599031149428 -0.183778260309801 -0.17664566482800254 3.7289333768893482 6.585919206571396 -0.10302407205165533 3.7567852226207976 2.124456961483055 6.23225983224308" Properties=species:S:1:pos:R:3:force:R:3:Z:I:1 pbc="T T T" config_type=Bi_vac Energy=-73.46974106 virial="13.991122712557111 8.33879572142564 7.033152841235932 8.33879572142564 3.7563511327761283 2.605698095586524 7.033152841235932 2.605698095586524 13.31481948856355"
Si 1.81550428 0.88776682 0.69447797 3.8854454 3.44117109 1.08524389 14
Si 1.79063448 0.87603196 3.00323167 -0.54144289 -0.45974895 0.20795536 14
Si 3.57911 1.97614992 3.85629223 1.54456154 0.25570438 -6.15567291 14
Si 1.83238389 3.25349789 -0.10303162 -0.12110398 -0.61526643 -0.25542396 14
Si 3.76728257 4.31630501 0.68529213 0.44365761 -3.10838405 0.691939 14
Si 3.65883051 4.26186352 3.06715886 -2.25836702 -1.04680473 -0.68720093 14
Si 5.48490289 5.24413937 3.67799071 2.57406473 0.59889346 1.36311244 14
Si 3.65384095 -0.09459839 -0.19252759 1.47347106 -0.67277575 -0.33388105 14
Si 5.58799416 0.95371595 2.94266986 -0.53005707 -0.87812857 -0.0797287 14
Si 7.60224729 1.90456232 3.6137899 -0.62008007 0.18046401 0.6661818 14
Si 5.64429089 2.99307513 -0.14630267 -0.12879513 0.19764626 0.64021784 14
Si 7.59643094 4.25034871 0.54880776 -0.41554652 -0.17820517 -0.55692897 14
Si 7.52559039 4.104603 2.86494758 -0.49869087 0.56574883 0.29299964 14
Si 9.36232328 5.20772363 3.74933893 0.33399806 0.82027834 -0.53154466 14
Bi -0.12392301 -0.01493505 -0.12432522 -5.14111485 0.89940727 3.65273122 83
15
Lattice="7.618054355046248 -0.19979766969965929 -0.11753904994320069 3.780453606668893 6.598313398767712 -0.16141200129659733 3.698139785625701 2.136856874575145 6.196793354335996" Properties=species:S:1:pos:R:3:force:R:3:Z:I:1 pbc="T T T" config_type=Bi_vac Energy=-72.73728332 virial="19.784523502444355 5.944760162048741 5.086679659076411 5.944760162048741 9.986284362759605 3.2613063214941334 5.086679659076411 3.2613063214941334 8.09810252719013"
Si 1.89924125 0.93954331 0.60879344 3.79595286 3.73742582 2.37211305 14
Si 1.7319056 0.98096027 3.09769823 -0.26337605 -1.3512407 -1.47710108 14
Si 3.60327925 1.96276297 3.78777082 0.98304385 0.8638972 -3.27159607 14
Si 1.80344353 3.29779528 -0.13260051 0.19628 -0.57468535 -0.08043562 14
Si 3.80244308 4.26258024 0.61071487 0.60916568 -3.57594554 1.21672953 14
Si 3.51613146 4.19651901 3.00074218 -0.01167896 0.61535466 -0.29898272 14
Si 5.44888967 5.34880068 3.71557351 0.14821988 -0.52918059 -0.0705804 14
Si 3.67345632 -0.17295863 -0.31750367 -0.12792034 -0.57465908 0.2049646 14
Si 5.4541246 0.7974768 0.61286339 -0.92109952 2.17635393 1.20553244 14
Si 5.51372495 0.85377305 3.00729826 -0.32184195 -1.24127056 -0.47447135 14
Si 7.47157475 1.9056131 3.59882363 -0.56707744 0.6491834 -0.27619421 14
Si 7.52577118 4.3000517 0.41061753 -0.70116609 -0.82341996 0.84981267 14
Si 7.3653303 4.13141632 2.88204535 -0.49266972 0.55990873 -0.84535734 14
Si 9.22885308 5.16131591 3.73668234 0.81357826 0.59210498 0.44084064 14
Bi -0.05411198 -0.06187873 -0.02882797 -3.13941046 -0.52382692 0.50472586 83
15
Lattice="7.631608240042875 -0.12744168487591934 -0.1778936135148821 3.695399151291327 6.585476946106719 -0.15085516372516206 3.761427928120196 2.045840752657962 6.1475815167265875" Properties=species:S:1:pos:R:3:force:R:3:Z:I:1 pbc="T T T" config_type=Bi_vac Energy=-72.37669693 virial="18.26459836635389 6.1018735961713535 4.5140223423199926 6.1018735961713535 12.725470856191503 1.4412394662744685 4.5140223423199926 1.4412394662744685 16.283732767216023"
Si 1.86671802 1.01011283 0.65709041 3.54996771 1.98362339 1.39874135 14
Si 1.7309973 0.93552678 3.00290567 1.57359516 -0.68636382 -0.05757339 14
Si 3.69924486 2.02143684 3.79215025 -0.15260436 0.88462322 -6.09895726 14
Si 1.77199778 3.16595894 -0.20410328 -0.0537806 0.47575616 -0.39951075 14
Si 3.69291123 4.21872785 0.58081764 -0.14462306 -3.12573703 2.39926438 14
Si 5.43158516 5.24222583 3.55223963 -0.56881579 -0.46155366 -0.21379737 14
Si 3.70954483 -0.10373896 -0.32018278 -0.4288721 -1.00350234 0.12262122 14
Si 5.51060432 0.97782479 0.4385173 -0.34497016 0.92504454 2.23321466 14
Si 5.60476811 0.90295976 2.95886686 -0.91712138 -0.94071834 -1.14846452 14
Si 7.55223324 1.93814356 3.48292845 -0.78952612 1.26744507 0.53495794 14
Si 5.53122158 3.1664913 -0.27306662 1.17842151 0.42951243 -0.13732121 14
Si 7.59031712 4.26307454 0.47344947 -1.02512236 -0.09069889 -0.53687157 14
Si 7.45114295 4.2451492 2.80753236 -1.95358887 -1.35505928 -0.80079271 14
Si 9.20847674 5.18307912 3.5551755 2.62163369 1.59529967 0.53036749 14
Bi -0.01245356 -0.14369298 -0.08626592 -2.54459327 0.10232887 2.17412175 83
15
Lattice="7.6325442400935755 -0.16617091217165858 -0.19054206616674088 3.779568473249993 6.555902780359075 -0.11922985972258526 3.727168630249428 2.0671591169950854 6.152428843472094" Properties=species:S:1:pos:R:3:force:R:3:Z:I:1 pbc="T T T" config_type=Bi_vac Energy=-71.02900211 virial="17.445632334556723 8.209920494163667 7.255090121199222 8.209920494163667 23.080550413854755 -1.4938086406171491 7.255090121199222 -1.4938086406171491 15.49792222490917"
Si 1.85282306 0.82466835 0.74546339 2.56414537 3.18452596 0.08196306 14
Si 1.75454456 0.87572693 3.05371411 -0.33659316 0.22708414 0.08941427 14
Si 3.60133733 2.04942521 3.68264886 1.3149123 0.88154264 -3.19575931 14
Si 1.91900412 3.27500251 -0.20578734 -2.48943663 -1.74760294 0.17366768 14
Si 3.69537372 4.31311627 0.51428298 2.02613055 -7.25771132 3.69433885 14
Si 5.47165496 5.24578256 3.5786886 0.01332139 -1.27393061 0.01580347 14
Si 3.69110949 -0.15126998 -0.32331941 -0.26911475 -0.48591513 2.25716821 14
Si 5.56159386 0.95371929 0.49999882 -2.54059194 -0.12547912 2.16659297 14
Si 5.65577068 0.78488684 2.86888465 -1.88802273 -0.23209117 0.12987457 14
Si 7.45464398 1.87491799 3.64832475 0.96302458 0.77564848 -2.04207571 14
Si 5.67321369 3.03890598 -0.11007607 -1.15520187 2.11680089 -1.65438169 14
Si 7.47749694 4.2270519 0.50485654 1.94272764 -0.07684687 -0.07560168 14
Si 7.56203843 4.15079047 2.85544749 -2.76183975 -1.19125824 -0.77190484 14
Si 9.26166158 5.14860314 3.63233127 2.67272258 1.15773165 1.19998692 14
Bi -0.18842376 -0.16539654 -0.04241501 -0.05618358 4.04750164 -2.06908677 83
15
Lattice="7.618395188933079 -0.14403450172221155 -0.18290662628123394 3.742330830190494 6.518857186351212 -0.142294082964206 3.70998833207705 2.086521972448423 6.2342085327937315" Properties=species:S:1:pos:R:3:force:R:3:Z:I:1 pbc="T T T" config_type=Bi_vac Energy=-72.1748941 virial="22.092830499071194 4.3484342559632605 2.2152012984587968 4.3484342559632605 17.81073992618232 2.2640630620034625 2.2152012984587968 2.2640630620034625 10.770961384091066"
Si 1.67261887 0.9833655 3.01520463 1.7391565 -1.25725115 -1.10585 14
Si 3.60195439 2.0617684 3.83459625 0.62785364 -0.25259021 -6.31816386 14
Si 1.88229702 3.25585408 -0.17149293 -2.33090589 -1.38032584 -0.9197473 14
Si 3.65624132 4.26694789 0.5367997 2.06275023 -3.44731905 2.59582188 14
Si 3.67461028 4.30388561 3.0184353 -3.31211463 -1.85767521 -1.54499513 14
Si 5.46618175 5.20916849 3.61421435 2.83906932 2.31221602 1.87674412 14
Si 3.76326311 -0.12650151 -0.33691163 -0.86704581 -0.04120348 0.02768309 14
Si 5.63928893 0.89132742 0.52692524 -4.4755274 1.2032816 3.30626244 14
Si 5.5929665 0.80220986 3.02196926 -1.72665387 -0.11529194 -0.85251269 14
Si 7.49478989 1.83736279 3.52468867 -0.53861306 1.27243167 1.46934597 14
Si 5.65087016 2.99152394 -0.18687097 -1.28976689 1.49327688 -1.02514974 14
Si 7.43644622 4.20212151 0.41289637 1.53654276 0.35355398 1.00073122 14
Si 7.36197611 4.06733706 2.90527736 0.05570289 0.09133803 -1.49273863 14
Si 9.26070115 5.11082052 3.66288094 0.64607454 0.20669152 0.26235308 14
Bi -0.15989537 -0.04833732 -0.1316386 5.03347769 1.4188672 2.72021556 83
15
Lattice="7.59458825507429 -0.14557626072576196 -0.18350204683607793 3.705115080295613 6.507015185372787 -0.10154732327953675 3.7491210314501497 2.0894183945483977 6.174220697158644" Properties=species:S:1:pos:R:3:force:R:3:Z:I:1 pbc="T T T" config_type=Bi_vac Energy=-71.60861217 virial="28.285617419930798 4.3847652742768055 3.7966398452344414 4.3847652742768055 15.482438128771209 4.663514118296132 3.7966398452344414 4.663514118296132 14.342944186179576"
Si 1.75386364 0.94750877 0.58954225 5.08129452 2.65428797 2.67911472 14
Si 3.6812151 2.00896592 3.72317764 -0.69684421 -1.01026707 -4.72280336 14
Si 1.71859803 3.14665952 -0.25087317 0.67669778 -0.03790817 -0.02420048 14
Si 3.73951154 4.16603074 0.54959915 -2.10361021 -1.64260453 1.56696515 14
Si 3.50412442 4.14312611 2.9545509 0.67565959 0.23820192 -0.86414986 14
Si 5.48585663 5.15670666 3.58868683 0.4018272 0.70287409 0.02970374 14
Si 3.69943732 -0.14651172 -0.23220248 -2.1612304 -0.07757246 -1.63472017 14
Si 5.47465826 0.7872832 0.58235253 -2.13503343 3.61859704 2.44550889 14
Si 5.59958795 0.94338477 2.92244802 -0.66412025 -1.32163555 0.14320085 14
Si 7.44559304 2.02321783 3.54340867 1.4656946 -0.08252239 0.60836891 14
Si 5.52819642 3.10310936 -0.14832175 1.48188423 -1.21091135 -0.50812756 14
Si 7.50771985 4.22607388 0.37774628 -0.09841293 -0.93676998 1.50385104 14
Si 7.52519359 4.21540103 2.86913679 -1.77473126 -0.51847349 -1.64591902 14
Si 9.33092646 5.13918351 3.68658112 0.77268128 1.80589981 0.30632573 14
Bi -0.18458926 0.00468805 -0.12625212 -0.92175652 -2.18119584 0.11688141 83
15
Lattice="7.600789684956921 -0.17377837029452894 -0.13835791937428532 3.765083534199243 6.551297185866661 -0.16178002563217103 3.7013478812997387 2.066089436966618 6.154989543073889" Properties=species:S:1:pos:R:3:force:R:3:Z:I:1 pbc="T T T" config_type=Bi_vac Energy=-73.49252413 virial="7.811662293012864 7.31875368684991 6.313649454612608 7.31875368684991 12.075260871889803 -1.7535262028214738 6.313649454612608 -1.7535262028214738 23.790448317190336"
Si 1.90003093 1.00706859 0.68356353 1.74150276 0.48920154 -0.11494779 14
Si 1.8391269 0.85428334 2.9421018 -1.85606481 0.08380383 0.40880538 14
Si 3.53152686 1.9664844 3.79084964 2.05665703 0.58792157 -6.8931268 14
Si 1.87467328 3.11000163 -0.18182046 0.06078074 1.68035489 1.14005526 14
Si 3.54676509 4.12461829 2.94031325 -0.44273967 0.60783753 -0.65276947 14
Si 5.41892061 5.31408873 3.70904258 0.62673648 -1.39400442 -0.97630255 14
Si 3.70803095 -0.24735312 -0.15768583 -0.39991759 1.50667438 -1.42598438 14
Si 5.47623985 0.90618669 0.65389236 -0.34109502 1.02745489 0.68030704 14
Si 5.59423831 0.74650099 2.99645357 -0.93502186 1.59565757 -0.44011416 14
Si 7.49222449 1.9286243 3.5610759 0.42558013 -0.97567151 0.8054255 14
Si 5.63744951 3.05065737 -0.23633709 -0.08671172 0.7382147 0.21365142 14
Si 7.56615026 4.28386723 0.53047749 -0.03327435 -2.77650655 -0.36986369 14
Si 7.37299744 4.06838151 2.79558589 -0.74780037 1.28429645 0.64799641 14
Si 9.22472652 5.20365812 3.58580321 0.65181834 -1.60162982 0.49264683 14
Bi -0.09892535 -0.12810762 -0.16131169 -0.72045007 -2.85360505 6.484221 83
16
Lattice="7.5770067193151815 -0.1531704550060778 -0.12990916231039784 3.7285361558812005 6.515448299499117 -0.19143797741434565 3.785774240486396 2.0793459555354996 6.174935578481938" Properties=species:S:1:pos:R:3:force:R:3:Z:I:1 pbc="T T T" config_type=Bi_vac Energy=-79.01855817 virial="28.25134006826239 15.129956475743096 10.310893962310558 15.129956475743096 21.060384958039695 2.4702337772008067 10.310893962310558 2.4702337772008067 20.55095246774109"
Si 1.77874185 0.95333101 0.69190999 7.58610829 3.8767844 2.16302236 14
Si 1.83741987 0.95370949 3.03141992 -1.08039018 -0.37874845 -0.62331509 14
Si 3.57850381 2.08419416 3.79099274 1.37432547 0.81972083 -4.98659912 14
Si 1.84138515 3.17951181 -0.21694688 -2.1389408 -0.93312881 -0.39631877 14
Si 3.58749677 4.24516023 0.54447751 1.88918143 -3.69524887 1.31185502 14
Si 3.54121026 4.27910652 2.81147667 0.02027468 0.18187035 1.49979542 14
Si 5.51746598 5.33368088 3.62174453 0.38179432 -1.31321201 -0.21796341 14
Si 3.73054417 -0.24176329 -0.25746672 -1.56985601 -0.19224641 -0.40769593 14
Si 5.50617356 0.78448883 0.64373294 -1.71441946 1.77188748 0.50934009 14
Si 5.50758307 0.81358168 2.90956203 -0.93464174 1.00083256 0.61805347 14
Si 7.44313979 1.82827651 3.52673803 0.39891011 1.39641693 0.69535462 14
Si 5.58902435 2.98431792 -0.1515937 -1.54737426 0.23217488 -0.74057744 14
Si 7.41895836 4.11362985 0.42771546 1.43283461 0.34426249 0.96219778 14
Si 7.51163907 4.1668405 2.8411835 -2.30239032 -1.27209622 -0.92642583 14
Si 9.20948237 5.27292829 3.6257698 1.97312589 -0.57334838 1.05770032 14
Bi -0.00745248 -0.05797997 -0.06560089 -3.76854203 -1.26592078 -0.5184235 83
15
Lattice="7.613231729984494 -0.10167473534696699 -0.11126188011105251 3.75701958468441 6.514797348653385 -0.13373484623663742 3.7187838543317433 2.112516698215225 6.228977208347524" Properties=species:S:1:pos:R:3:force:R:3:Z:I:1 pbc="T T T" config_type=Bi_vac Energy=-73.45297467 virial="23.510905765291238 4.557426773862939 4.668492488503696 4.557426773862939 11.393987217752109 5.00409967040166 4.668492488503696 5.00409967040166 7.290540019762916"
Si 1.79786284 0.85879098 0.74163396 3.94883339 3.05134728 -0.81686082 14
Si 1.71996957 1.06498443 2.92964902 -0.26785674 -0.33280172 2.07788182 14
Si 3.66669141 1.9550214 3.80555947 0.47480688 0.86267237 -2.76441096 14
Si 1.86434183 3.15641957 -0.25918584 0.18775723 -0.14690053 0.73940315 14
Si 3.60499837 4.21901577 2.96332663 1.06906902 -0.99526013 -0.50589622 14
Si 5.5424767 5.35667 3.63182386 0.15783455 -0.20224832 -0.16452002 14
Si 3.70204411 -0.18977762 -0.18956391 -0.63165103 0.50376126 -0.31362248 14
Si 5.55007668 0.88100954 0.54472896 -3.0669124 3.43270001 2.5172571 14
Si 5.64278243 0.86894721 3.03289888 -1.93565145 -0.9340512 -1.40483638 14
Si 7.36301331 2.05525048 3.69239547 1.71612137 -0.09587639 0.45388783 14
Si 5.56950564 3.17185297 -0.05954565 -1.03016014 -0.37009427 -1.14627319 14
Si 7.54901426 4.20912169 0.42442914 0.58022553 -1.2362026 1.34609848 14
Si 7.52026828 4.18582457 2.93489676 -1.99784611 0.36311952 -1.8437916 14
Si 9.36380588 5.13686741 3.59446159 0.96138305 1.43526476 2.16102333 14
Bi -0.15663559 -0.14830069 0.02493206 -0.16595315 -5.33543005 -0.33534004 83
15
Lattice="7.566539660859691 -0.1327228800114133 -0.1974243340468277 3.7759231559047084 6.603016480174795 -0.1861461419380934 3.7820646448067823 2.1114109877769596 6.224230479055265" Properties=species:S:1:pos:R:3:force:R:3:Z:I:1 pbc="T T T" config_type=Bi_vac Energy=-74.07301003 virial="13.089368659156799 -0.6072157381909177 1.1623028806905114 -0.6072157381909177 15.67779863595412 -0.9679655715910075 1.1623028806905114 -0.9679655715910075 8.487446444287151"
Si 1.7590967 0.88577246 3.0961993 0.21592686 1.26322711 -1.06917955 14
Si 3.66908306 2.08994914 3.78188557 -0.20373704 -0.86686595 -3.48763722 14
Si 1.74914562 3.25912796 -0.24999229 -0.52756946 -1.28016503 -0.33961714 14
Si 3.61941464 4.20483022 0.4987832 0.59085698 -2.47894773 1.6569219 14
Si 3.64983148 4.18236722 2.89482973 -0.51267695 1.50158875 -0.11283352 14
Si 5.54833046 5.40096033 3.62835297 0.16826348 -1.74501871 0.10419293 14
Si 3.6340183 -0.24622007 -0.25990766 -0.41817539 1.3684774 -0.4548695 14
Si 5.51176488 0.95930507 0.46427568 -3.62808027 0.89126812 2.23933887 14
Si 5.51186845 0.92733018 2.91000362 -0.25131692 -0.83917533 -0.50360482 14
Si 7.45904716 1.92402414 3.56734613 0.150998 0.70127678 0.45416489 14
Si 5.53232226 3.09474278 -0.25176527 0.47670195 1.19087263 -1.1234841 14
Si 7.52272786 4.27854996 0.42491857 -0.75297619 -0.92739677 -0.32574261 14
Si 7.46302535 4.20246566 2.71747047 -1.63477914 -0.85531793 0.591549 14
Si 9.22139812 5.23620474 3.52589973 2.09149639 0.85227496 0.71910372 14
Bi -0.16292347 -0.09626097 -0.06132908 4.23506768 1.2239017 1.65169715 83
15
Lattice="7.6368405434500595 -0.12745517979359566 -0.16137980621604917 3.764598361430999 6.582925124692299 -0.1717716124839284 3.7720090139597375 2.054453013452087 6.194317286681156" Properties=species:S:1:pos:R:3:force:R:3:Z:I:1 pbc="T T T" config_type=Bi_vac Energy=-72.16929739 virial="18.586355060110503 4.117275649858851 3.55780142721352 4.117275649858851 16.86095869035195 1.1430540791516006 3.55780142721352 1.1430540791516006 12.257320053392624"
Si 1.92087234 0.94787704 0.59184966 2.9234617 3.35410275 2.05525616 14
Si 1.81975868 0.87926565 3.0356771 0.16068649 0.65988725 -0.87154439 14
Si 3.70836856 1.99464438 3.78424756 0.10849239 1.01139233 -5.00675701 14
Si 1.88224336 3.27290084 -0.29440812 -0.96524017 -0.8054008 0.77776738 14
Si 3.78166748 4.24956883 0.46910147 0.629058 -3.64273547 2.40548185 14
Si 5.59905924 5.32638595 3.6095411 -1.09018749 -0.88901794 -0.34499079 14
Si 3.65012994 -0.18699386 -0.29358361 1.19416485 -0.03352738 -0.7125094 14
Si 5.58679676 0.89071591 0.57795463 -2.54829936 0.86112876 1.16195749 14
Si 5.55376868 0.81195582 2.94281105 0.4871693 0.90745662 -0.18326387 14
Si 7.57084925 1.96701784 3.5139189 -0.79317469 0.15807384 0.29156871 14
Si 5.71966499 3.08014583 -0.16529444 -1.81496033 -0.28827066 -1.69781968 14
Si 7.49521212 4.23532044 0.37633198 1.95151596 0.32621879 0.76567697 14
Si 7.42887001 4.25926989 2.76699304 0.17436349 -1.03865192 -0.52401163 14
Si 9.27197219 5.28381714 3.56788337 1.13839802 -0.76000777 1.07413755 14
Bi -0.04500215 -0.10128389 -0.08878909 -1.55544815 0.17935162 0.80905065 83
15
Lattice="7.651733100807603 -0.11437308918229598 -0.1673485834477196 3.7899958340064583 6.510233250512743 -0.11833634737450668 3.7130151461588605 2.085331576960859 6.194304511465232" Properties=species:S:1:pos:R:3:force:R:3:Z:I:1 pbc="T T T" config_type=Bi_vac Energy=-71.95180482 virial="19.29784224184127 9.85221238350863 7.495096664005972 9.85221238350863 17.241893666835246 2.4936251192981755 7.495096664005972 2.4936251192981755 13.842643692600735"
Si 1.92608495 0.93400163 0.71944338 2.18502813 1.46442529 -0.89255356 14
Si 1.7799539 0.89012544 2.91235522 -0.53825999 0.32095903 2.41994484 14
Si 3.60485685 2.08452975 3.76494165 0.57799212 -0.21784983 -4.34268025 14
Si 1.88234162 3.14198233 -0.19222123 -2.38708416 -0.98171746 -0.7429183 14
Si 3.63419248 4.19717411 0.51705919 2.3409389 -3.89385016 2.29705394 14
Si 3.52785563 4.27276301 2.87241291 -1.17466019 -0.55512363 0.14359789 14
Si 5.41461081 5.1988428 3.63098391 1.94950862 0.34673429 0.1022464 14
Si 3.77163624 -0.21117305 -0.207216 -1.88071636 -0.32065132 -1.31935558 14
Si 5.48406814 0.81651762 0.54763287 -0.25381811 3.01155398 2.69829831 14
Si 7.40249883 1.86003487 3.63051059 -0.1225386 0.03692626 -0.82578573 14
Si 5.72632941 3.09913079 -0.10143264 -2.33137294 -1.04466316 -1.67509989 14
Si 7.5429715 4.18150759 0.44936431 1.84112075 -0.39800654 1.43976846 14
Si 7.53367102 4.17393775 2.86965534 -2.40027829 -1.32892274 -0.71522826 14
Si 9.25181302 5.29020919 3.55500211 2.13612284 1.48448044 1.30192509 14
Bi -0.1361725 -0.1080289 -0.06767115 0.05801728 2.07570553 0.11078662 83
16
Lattice="7.633822826506678 -0.12769175100493085 -0.10899656400210411 3.774640208304485 6.561259700711994 -0.19072215799884143 3.7645037678467688 2.1316899468213055 6.153980909263106" Properties=species:S:1:pos:R:3:force:R:3:Z:I:1 pbc="T T T" config_type=Bi_vac Energy=-79.41820928 virial="14.408101361928559 -0.9842271121044872 -0.9055344189490511 -0.9842271121044872 18.739370860069336 -0.20711096217173583 -0.9055344189490511 -0.20711096217173583 28.7713157464338"
Si 1.9037993 1.02125034 0.71006119 1.85633041 1.08323943 -0.98662732 14
Si 1.70614683 1.05273025 2.89899047 1.73921689 -1.40610971 2.09518058 14
Si 3.74830373 2.02924451 3.79302072 -0.27455662 0.17322633 -8.46279479 14
Si 1.74696005 3.18390167 -0.20114338 1.39238903 0.01615629 0.14381415 14
Si 3.79469529 4.26522105 0.45488769 -0.39771778 -5.53455764 3.08171597 14
Si 3.55092771 4.24096314 2.9568634 1.73075373 0.05274163 -0.95645946 14
Si 5.61081263 5.33410542 3.66527996 -0.68317742 0.09945589 -1.39649689 14
Si 3.68645442 -0.22926682 -0.25411968 -0.52794957 0.39201752 0.59047803 14
Si 5.53310798 0.85208409 0.50967406 -1.81288875 1.30006598 1.91700493 14
Si 5.61928686 0.82847616 2.90701482 -0.36905119 0.84467125 -0.44369522 14
Si 7.53750271 1.90385436 3.64241441 -0.9495996 1.59856584 -0.95017422 14
Si 5.71040978 3.02381461 -0.16432102 -0.12946687 1.19745753 -0.86936043 14
Si 7.63297473 4.25934738 0.50399338 -0.89189338 -0.67592495 -0.55950846 14
Si 7.53024913 4.22306373 2.73943296 -0.63350148 -0.60861476 1.78411433 14
Si 9.38668053 5.30198802 3.58188282 -0.20536184 -0.66824481 0.98912623 14
Bi -0.09970761 -0.14856067 -0.15909811 0.15647445 2.13585419 4.02368257 83
15
Lattice="7.595842339071511 -0.1378804220322892 -0.1916278868061955 3.7219563274092553 6.53838707053299 -0.13759818200946589 3.761749534039643 2.1394743919031014 6.220040839043135" Properties=species:S:1:pos:R:3:force:R:3:Z:I:1 pbc="T T T" config_type=Bi_vac Energy=-73.76474914 virial="21.790510620710574 8.846934528890511 5.81491268869398 8.846934528890511 14.597201123579282 1.9612066216413242 5.81491268869398 1.9612066216413242 6.154106688274764"
Si 1.82147963 0.98227654 0.63397696 3.10684159 1.39375151 0.96904291 14
Si 1.7607854 1.01760638 2.94825989 0.55459594 0.17734691 0.75576458 14
Si 1.73433161 3.1686534 -0.12593326 -0.91003304 -0.17191591 -1.36495476 14
Si 3.58329765 4.17811981 0.64702579 1.10264515 -2.94944524 0.92676971 14
Si 3.6896277 4.23331424 2.9007666 -1.65363359 -0.71313225 1.01026182 14
Si 5.48128246 5.33354995 3.61762777 1.687166 0.24990235 0.6316828 14
Si 3.73377341 -0.14492215 -0.24893892 -2.21105703 -1.28428066 -1.22762412 14
Si 5.47149052 0.81146953 0.59000332 -0.93823881 3.32219255 1.81625452 14
Si 5.55641809 0.94523725 2.88439364 -1.44285079 0.05525229 0.25731022 14
Si 7.41932228 1.98185952 3.54164562 1.0565914 0.7950226 0.53700775 14
Si 5.54121445 3.09995891 -0.16501046 -1.01405491 -0.72077422 -1.20581835 14
Si 7.41103772 4.16634858 0.47440784 0.86478405 0.60326545 -0.5903606 14
Si 7.51511019 4.22082317 2.72983639 -1.32170019 -0.17520002 1.33835352 14
Si 9.29540929 5.33617774 3.57644693 1.2180809 -0.50286063 0.70938365 14
Bi -0.16872846 -0.12478673 0.01237099 -0.09913664 -0.07912472 -4.56307367 83
15
Lattice="7.582181734393132 -0.1699959735344779 -0.17242213579046323 3.754156836570037 6.533703884652843 -0.19546350342177932 3.6943962830706774 2.1065591848118776 6.205883903507713" Properties=species:S:1:pos:R:3:force:R:3:Z:I:1 pbc="T T T" config_type=Bi_vac Energy=-72.82242212 virial="20.39360438628006 0.5590594493309642 0.6716405260787257 0.5590594493309642 14.691145796274776 1.4071810733419585 0.6716405260787257 1.4071810733419585 6.8851436157061325"
Si 1.90711248 1.01165067 0.61314442 3.83239584 1.86250783 1.45164606 14
Si 1.68761482 1.03135449 3.06940648 2.02209657 -1.78028434 -1.39473421 14
Si 3.67198849 2.08916138 3.73166269 -0.89535182 -0.88654784 -1.34920364 14
Si 1.75301655 3.25425586 -0.28308572 -0.24900617 -0.55248998 1.44436266 14
Si 3.73462552 4.14777207 0.53987586 0.03498997 -3.77981277 1.46874049 14
Si 3.57806851 4.18172542 2.96427711 0.68062694 1.07314969 -1.09426423 14
Si 5.50469098 5.27116047 3.6843315 0.65392702 0.27527013 -1.55577445 14
Si 5.52594875 0.80822622 0.48288791 -4.19877248 1.17580483 1.80227356 14
Si 5.45417183 0.89388337 3.02424377 1.20119071 -0.98807204 -1.30792563 14
Si 7.49832892 1.84066512 3.57093676 -1.97568114 1.82040107 1.18801155 14
Si 5.62074503 2.98453724 -0.31598463 0.16514632 0.53139793 0.00870025 14
Si 7.47354969 4.23850238 0.43072962 -0.05637186 0.43172196 -0.62296814 14
Si 7.43237118 4.07898946 2.73611941 -0.65838431 -0.18305662 0.6730075 14
Si 9.31055115 5.13977002 3.5303818 -0.60510924 0.72538227 0.37881231 14
Bi -0.06571334 -0.13275883 0.01689276 0.04830364 0.27462788 -1.09068407 83
15
Lattice="7.6186640691162495 -0.17792272084888802 -0.141893886572366 3.740541567751208 6.597538703597225 -0.15906000728619293 3.7607898451446515 2.0517027707031565 6.224485562729485" Properties=species:S:1:pos:R:3:force:R:3:Z:I:1 pbc="T T T" config_type=Bi_vac Energy=-74.26667102 virial="6.992089360915384 2.818934664354596 1.7918491614516623 2.818934664354596 9.913734635406543 -0.5556941787828623 1.7918491614516623 -0.5556941787828623 9.912662950537555"
Si 1.8021697 0.90856698 2.93677364 -0.10207236 -0.13862511 -0.24867589 14
Si 3.6815293 2.05722681 3.71353287 0.05827619 -0.50337552 -4.39726926 14
Si 1.9062669 3.31418371 -0.14006568 -1.44663549 -1.55047345 -0.63093422 14
Si 3.67049354 4.30253182 0.64075008 1.77379249 -2.39264504 0.69109384 14
Si 3.53092773 4.26611758 2.89923987 1.30975055 0.37210747 1.34903519 14
Si 5.58586962 5.33909203 3.76692515 -0.53619478 -0.16928087 -0.82979593 14
Si 3.61301802 -0.11782893 -0.24056497 0.12989919 -0.08732465 -0.23502336 14
Si 5.62515506 0.93829277 0.55369481 -2.62833579 -0.53505624 0.8526826 14
Si 5.56816461 0.72903415 2.88710563 0.18671536 1.96758705 0.06481916 14
Si 7.53743948 1.88655673 3.550713 -0.36066121 0.65715751 0.49697264 14
Si 5.65724971 3.0742874 -0.10684693 -0.39947986 1.55536932 -1.04136395 14
Si 7.60721408 4.20200779 0.39219998 -0.30965135 0.95828553 1.27282717 14
Si 7.482176 4.2545049 2.87966706 -0.27660398 -1.09738541 -0.83172749 14
Si 9.37963571 5.28469004 3.66281987 -0.25810326 -1.06372954 1.04395142 14